# vtk DataFile Version 3.0
#This file was generated by the deal.II library on 2021/2/26 at 18:29:26
ASCII
DATASET UNSTRUCTURED_GRID

POINTS 52800 double
0 0 0
0.0166667 0 0
0 0.00454545 0
0.0166667 0.00454545 0
0.0166667 0 0
0.0333333 0 0
0.0166667 0.00454545 0
0.0333333 0.00454545 0
0.0333333 0 0
0.05 0 0
0.0333333 0.00454545 0
0.05 0.00454545 0
0.05 0 0
0.0666667 0 0
0.05 0.00454545 0
0.0666667 0.00454545 0
0.0666667 0 0
0.0833333 0 0
0.0666667 0.00454545 0
0.0833333 0.00454545 0
0.0833333 0 0
0.1 0 0
0.0833333 0.00454545 0
0.1 0.00454545 0
0.1 0 0
0.116667 0 0
0.1 0.00454545 0
0.116667 0.00454545 0
0.116667 0 0
0.133333 0 0
0.116667 0.00454545 0
0.133333 0.00454545 0
0.133333 0 0
0.15 0 0
0.133333 0.00454545 0
0.15 0.00454545 0
0.15 0 0
0.166667 0 0
0.15 0.00454545 0
0.166667 0.00454545 0
0.166667 0 0
0.183333 0 0
0.166667 0.00454545 0
0.183333 0.00454545 0
0.183333 0 0
0.2 0 0
0.183333 0.00454545 0
0.2 0.00454545 0
0.2 0 0
0.216667 0 0
0.2 0.00454545 0
0.216667 0.00454545 0
0.216667 0 0
0.233333 0 0
0.216667 0.00454545 0
0.233333 0.00454545 0
0.233333 0 0
0.25 0 0
0.233333 0.00454545 0
0.25 0.00454545 0
0.25 0 0
0.266667 0 0
0.25 0.00454545 0
0.266667 0.00454545 0
0.266667 0 0
0.283333 0 0
0.266667 0.00454545 0
0.283333 0.00454545 0
0.283333 0 0
0.3 0 0
0.283333 0.00454545 0
0.3 0.00454545 0
0.3 0 0
0.316667 0 0
0.3 0.00454545 0
0.316667 0.00454545 0
0.316667 0 0
0.333333 0 0
0.316667 0.00454545 0
0.333333 0.00454545 0
0.333333 0 0
0.35 0 0
0.333333 0.00454545 0
0.35 0.00454545 0
0.35 0 0
0.366667 0 0
0.35 0.00454545 0
0.366667 0.00454545 0
0.366667 0 0
0.383333 0 0
0.366667 0.00454545 0
0.383333 0.00454545 0
0.383333 0 0
0.4 0 0
0.383333 0.00454545 0
0.4 0.00454545 0
0.4 0 0
0.416667 0 0
0.4 0.00454545 0
0.416667 0.00454545 0
0.416667 0 0
0.433333 0 0
0.416667 0.00454545 0
0.433333 0.00454545 0
0.433333 0 0
0.45 0 0
0.433333 0.00454545 0
0.45 0.00454545 0
0.45 0 0
0.466667 0 0
0.45 0.00454545 0
0.466667 0.00454545 0
0.466667 0 0
0.483333 0 0
0.466667 0.00454545 0
0.483333 0.00454545 0
0.483333 0 0
0.5 0 0
0.483333 0.00454545 0
0.5 0.00454545 0
0.5 0 0
0.516667 0 0
0.5 0.00454545 0
0.516667 0.00454545 0
0.516667 0 0
0.533333 0 0
0.516667 0.00454545 0
0.533333 0.00454545 0
0.533333 0 0
0.55 0 0
0.533333 0.00454545 0
0.55 0.00454545 0
0.55 0 0
0.566667 0 0
0.55 0.00454545 0
0.566667 0.00454545 0
0.566667 0 0
0.583333 0 0
0.566667 0.00454545 0
0.583333 0.00454545 0
0.583333 0 0
0.6 0 0
0.583333 0.00454545 0
0.6 0.00454545 0
0.6 0 0
0.616667 0 0
0.6 0.00454545 0
0.616667 0.00454545 0
0.616667 0 0
0.633333 0 0
0.616667 0.00454545 0
0.633333 0.00454545 0
0.633333 0 0
0.65 0 0
0.633333 0.00454545 0
0.65 0.00454545 0
0.65 0 0
0.666667 0 0
0.65 0.00454545 0
0.666667 0.00454545 0
0.666667 0 0
0.683333 0 0
0.666667 0.00454545 0
0.683333 0.00454545 0
0.683333 0 0
0.7 0 0
0.683333 0.00454545 0
0.7 0.00454545 0
0.7 0 0
0.716667 0 0
0.7 0.00454545 0
0.716667 0.00454545 0
0.716667 0 0
0.733333 0 0
0.716667 0.00454545 0
0.733333 0.00454545 0
0.733333 0 0
0.75 0 0
0.733333 0.00454545 0
0.75 0.00454545 0
0.75 0 0
0.766667 0 0
0.75 0.00454545 0
0.766667 0.00454545 0
0.766667 0 0
0.783333 0 0
0.766667 0.00454545 0
0.783333 0.00454545 0
0.783333 0 0
0.8 0 0
0.783333 0.00454545 0
0.8 0.00454545 0
0.8 0 0
0.816667 0 0
0.8 0.00454545 0
0.816667 0.00454545 0
0.816667 0 0
0.833333 0 0
0.816667 0.00454545 0
0.833333 0.00454545 0
0.833333 0 0
0.85 0 0
0.833333 0.00454545 0
0.85 0.00454545 0
0.85 0 0
0.866667 0 0
0.85 0.00454545 0
0.866667 0.00454545 0
0.866667 0 0
0.883333 0 0
0.866667 0.00454545 0
0.883333 0.00454545 0
0.883333 0 0
0.9 0 0
0.883333 0.00454545 0
0.9 0.00454545 0
0.9 0 0
0.916667 0 0
0.9 0.00454545 0
0.916667 0.00454545 0
0.916667 0 0
0.933333 0 0
0.916667 0.00454545 0
0.933333 0.00454545 0
0.933333 0 0
0.95 0 0
0.933333 0.00454545 0
0.95 0.00454545 0
0.95 0 0
0.966667 0 0
0.95 0.00454545 0
0.966667 0.00454545 0
0.966667 0 0
0.983333 0 0
0.966667 0.00454545 0
0.983333 0.00454545 0
0.983333 0 0
1 0 0
0.983333 0.00454545 0
1 0.00454545 0
0 0.00454545 0
0.0166667 0.00454545 0
0 0.00909091 0
0.0166667 0.00909091 0
0.0166667 0.00454545 0
0.0333333 0.00454545 0
0.0166667 0.00909091 0
0.0333333 0.00909091 0
0.0333333 0.00454545 0
0.05 0.00454545 0
0.0333333 0.00909091 0
0.05 0.00909091 0
0.05 0.00454545 0
0.0666667 0.00454545 0
0.05 0.00909091 0
0.0666667 0.00909091 0
0.0666667 0.00454545 0
0.0833333 0.00454545 0
0.0666667 0.00909091 0
0.0833333 0.00909091 0
0.0833333 0.00454545 0
0.1 0.00454545 0
0.0833333 0.00909091 0
0.1 0.00909091 0
0.1 0.00454545 0
0.116667 0.00454545 0
0.1 0.00909091 0
0.116667 0.00909091 0
0.116667 0.00454545 0
0.133333 0.00454545 0
0.116667 0.00909091 0
0.133333 0.00909091 0
0.133333 0.00454545 0
0.15 0.00454545 0
0.133333 0.00909091 0
0.15 0.00909091 0
0.15 0.00454545 0
0.166667 0.00454545 0
0.15 0.00909091 0
0.166667 0.00909091 0
0.166667 0.00454545 0
0.183333 0.00454545 0
0.166667 0.00909091 0
0.183333 0.00909091 0
0.183333 0.00454545 0
0.2 0.00454545 0
0.183333 0.00909091 0
0.2 0.00909091 0
0.2 0.00454545 0
0.216667 0.00454545 0
0.2 0.00909091 0
0.216667 0.00909091 0
0.216667 0.00454545 0
0.233333 0.00454545 0
0.216667 0.00909091 0
0.233333 0.00909091 0
0.233333 0.00454545 0
0.25 0.00454545 0
0.233333 0.00909091 0
0.25 0.00909091 0
0.25 0.00454545 0
0.266667 0.00454545 0
0.25 0.00909091 0
0.266667 0.00909091 0
0.266667 0.00454545 0
0.283333 0.00454545 0
0.266667 0.00909091 0
0.283333 0.00909091 0
0.283333 0.00454545 0
0.3 0.00454545 0
0.283333 0.00909091 0
0.3 0.00909091 0
0.3 0.00454545 0
0.316667 0.00454545 0
0.3 0.00909091 0
0.316667 0.00909091 0
0.316667 0.00454545 0
0.333333 0.00454545 0
0.316667 0.00909091 0
0.333333 0.00909091 0
0.333333 0.00454545 0
0.35 0.00454545 0
0.333333 0.00909091 0
0.35 0.00909091 0
0.35 0.00454545 0
0.366667 0.00454545 0
0.35 0.00909091 0
0.366667 0.00909091 0
0.366667 0.00454545 0
0.383333 0.00454545 0
0.366667 0.00909091 0
0.383333 0.00909091 0
0.383333 0.00454545 0
0.4 0.00454545 0
0.383333 0.00909091 0
0.4 0.00909091 0
0.4 0.00454545 0
0.416667 0.00454545 0
0.4 0.00909091 0
0.416667 0.00909091 0
0.416667 0.00454545 0
0.433333 0.00454545 0
0.416667 0.00909091 0
0.433333 0.00909091 0
0.433333 0.00454545 0
0.45 0.00454545 0
0.433333 0.00909091 0
0.45 0.00909091 0
0.45 0.00454545 0
0.466667 0.00454545 0
0.45 0.00909091 0
0.466667 0.00909091 0
0.466667 0.00454545 0
0.483333 0.00454545 0
0.466667 0.00909091 0
0.483333 0.00909091 0
0.483333 0.00454545 0
0.5 0.00454545 0
0.483333 0.00909091 0
0.5 0.00909091 0
0.5 0.00454545 0
0.516667 0.00454545 0
0.5 0.00909091 0
0.516667 0.00909091 0
0.516667 0.00454545 0
0.533333 0.00454545 0
0.516667 0.00909091 0
0.533333 0.00909091 0
0.533333 0.00454545 0
0.55 0.00454545 0
0.533333 0.00909091 0
0.55 0.00909091 0
0.55 0.00454545 0
0.566667 0.00454545 0
0.55 0.00909091 0
0.566667 0.00909091 0
0.566667 0.00454545 0
0.583333 0.00454545 0
0.566667 0.00909091 0
0.583333 0.00909091 0
0.583333 0.00454545 0
0.6 0.00454545 0
0.583333 0.00909091 0
0.6 0.00909091 0
0.6 0.00454545 0
0.616667 0.00454545 0
0.6 0.00909091 0
0.616667 0.00909091 0
0.616667 0.00454545 0
0.633333 0.00454545 0
0.616667 0.00909091 0
0.633333 0.00909091 0
0.633333 0.00454545 0
0.65 0.00454545 0
0.633333 0.00909091 0
0.65 0.00909091 0
0.65 0.00454545 0
0.666667 0.00454545 0
0.65 0.00909091 0
0.666667 0.00909091 0
0.666667 0.00454545 0
0.683333 0.00454545 0
0.666667 0.00909091 0
0.683333 0.00909091 0
0.683333 0.00454545 0
0.7 0.00454545 0
0.683333 0.00909091 0
0.7 0.00909091 0
0.7 0.00454545 0
0.716667 0.00454545 0
0.7 0.00909091 0
0.716667 0.00909091 0
0.716667 0.00454545 0
0.733333 0.00454545 0
0.716667 0.00909091 0
0.733333 0.00909091 0
0.733333 0.00454545 0
0.75 0.00454545 0
0.733333 0.00909091 0
0.75 0.00909091 0
0.75 0.00454545 0
0.766667 0.00454545 0
0.75 0.00909091 0
0.766667 0.00909091 0
0.766667 0.00454545 0
0.783333 0.00454545 0
0.766667 0.00909091 0
0.783333 0.00909091 0
0.783333 0.00454545 0
0.8 0.00454545 0
0.783333 0.00909091 0
0.8 0.00909091 0
0.8 0.00454545 0
0.816667 0.00454545 0
0.8 0.00909091 0
0.816667 0.00909091 0
0.816667 0.00454545 0
0.833333 0.00454545 0
0.816667 0.00909091 0
0.833333 0.00909091 0
0.833333 0.00454545 0
0.85 0.00454545 0
0.833333 0.00909091 0
0.85 0.00909091 0
0.85 0.00454545 0
0.866667 0.00454545 0
0.85 0.00909091 0
0.866667 0.00909091 0
0.866667 0.00454545 0
0.883333 0.00454545 0
0.866667 0.00909091 0
0.883333 0.00909091 0
0.883333 0.00454545 0
0.9 0.00454545 0
0.883333 0.00909091 0
0.9 0.00909091 0
0.9 0.00454545 0
0.916667 0.00454545 0
0.9 0.00909091 0
0.916667 0.00909091 0
0.916667 0.00454545 0
0.933333 0.00454545 0
0.916667 0.00909091 0
0.933333 0.00909091 0
0.933333 0.00454545 0
0.95 0.00454545 0
0.933333 0.00909091 0
0.95 0.00909091 0
0.95 0.00454545 0
0.966667 0.00454545 0
0.95 0.00909091 0
0.966667 0.00909091 0
0.966667 0.00454545 0
0.983333 0.00454545 0
0.966667 0.00909091 0
0.983333 0.00909091 0
0.983333 0.00454545 0
1 0.00454545 0
0.983333 0.00909091 0
1 0.00909091 0
0 0.00909091 0
0.0166667 0.00909091 0
0 0.0136364 0
0.0166667 0.0136364 0
0.0166667 0.00909091 0
0.0333333 0.00909091 0
0.0166667 0.0136364 0
0.0333333 0.0136364 0
0.0333333 0.00909091 0
0.05 0.00909091 0
0.0333333 0.0136364 0
0.05 0.0136364 0
0.05 0.00909091 0
0.0666667 0.00909091 0
0.05 0.0136364 0
0.0666667 0.0136364 0
0.0666667 0.00909091 0
0.0833333 0.00909091 0
0.0666667 0.0136364 0
0.0833333 0.0136364 0
0.0833333 0.00909091 0
0.1 0.00909091 0
0.0833333 0.0136364 0
0.1 0.0136364 0
0.1 0.00909091 0
0.116667 0.00909091 0
0.1 0.0136364 0
0.116667 0.0136364 0
0.116667 0.00909091 0
0.133333 0.00909091 0
0.116667 0.0136364 0
0.133333 0.0136364 0
0.133333 0.00909091 0
0.15 0.00909091 0
0.133333 0.0136364 0
0.15 0.0136364 0
0.15 0.00909091 0
0.166667 0.00909091 0
0.15 0.0136364 0
0.166667 0.0136364 0
0.166667 0.00909091 0
0.183333 0.00909091 0
0.166667 0.0136364 0
0.183333 0.0136364 0
0.183333 0.00909091 0
0.2 0.00909091 0
0.183333 0.0136364 0
0.2 0.0136364 0
0.2 0.00909091 0
0.216667 0.00909091 0
0.2 0.0136364 0
0.216667 0.0136364 0
0.216667 0.00909091 0
[...]
POINT_DATA 52800
SCALARS Permeabiity double 1
LOOKUP_TABLE default
0.010815 0.010815 0.010815 0.010815 0.047045 0.047045 0.047045 0.047045 0.098396 0.098396 0.098396 0.098396 0.244772 0.244772 0.244772 0.244772 0.071786 0.071786 0.071786 0.071786 0.082524 0.082524 0.082524 0.082524 0.016167 0.016167 0.016167 0.016167 0.029995 0.029995 0.029995 0.029995 0.149281 0.149281 0.149281 0.149281 1.04806 1.04806 1.04806 1.04806 0.081301 0.081301 0.081301 0.081301 0.104921 0.104921 0.104921 0.104921 0.461576 0.461576 0.461576 0.461576 0.204822 0.204822 0.204822 0.204822 0.560286 0.560286 0.560286 0.560286 0.121165 0.121165 0.121165 0.121165 0.132916 0.132916 0.132916 0.132916 0.092651 0.092651 0.092651 0.092651 0.038394 0.038394 0.038394 0.038394 0.18084 0.18084 0.18084 0.18084 0.206513 0.206513 0.206513 0.206513 0.273771 0.273771 0.273771 0.273771 0.217652 0.217652 0.217652 0.217652 0.06395 0.06395 0.06395 0.06395 0.221099 0.221099 0.221099 0.221099 0.844385 0.844385 0.844385 0.844385 0.385283 0.385283 0.385283 0.385283 0.184638 0.184638 0.184638 0.184638 1.59586 1.59586 1.59586 1.59586 191.944 191.944 191.944 191.944 591.139 591.139 591.139 591.139 1550.06 1550.06 1550.06 1550.06 1335.27 1335.27 1335.27 1335.27 2271.93 2271.93 2271.93 2271.93 1434.78 1434.78 1434.78 1434.78 1484.88 1484.88 1484.88 1484.88 728.947 728.947 728.947 728.947 815.317 815.317 815.317 815.317 669.11 669.11 669.11 669.11 1156.45 1156.45 1156.45 1156.45 3283.61 3283.61 3283.61 3283.61 0.288147 0.288147 0.288147 0.288147 0.68468 0.68468 0.68468 0.68468 0.453118 0.453118 0.453118 0.453118 0.807517 0.807517 0.807517 0.807517 0.206627 0.206627 0.206627 0.206627 0.132577 0.132577 0.132577 0.132577 0.132503 0.132503 0.132503 0.132503 0.02117 0.02117 0.02117 0.02117 350.562 350.562 350.562 350.562 1636.23 1636.23 1636.23 1636.23 1575.33 1575.33 1575.33 1575.33 2803.13 2803.13 2803.13 2803.13 1205.38 1205.38 1205.38 1205.38 0.126087 0.126087 0.126087 0.126087 0.0159 0.0159 0.0159 0.0159 0.058894 0.058894 0.058894 0.058894 0.190966 0.190966 0.190966 0.190966 0.870522 0.870522 0.870522 0.870522 0.239613 0.239613 0.239613 0.239613 0.086416 0.086416 0.086416 0.086416 0.018644 0.018644 0.018644 0.018644 0.101685 0.101685 0.101685 0.101685 0.141328 0.141328 0.141328 0.141328 0.08294 0.08294 0.08294 0.08294 0.012905 0.012905 0.012905 0.012905 0.008378 0.008378 0.008378 0.008378 0.022166 0.022166 0.022166 0.022166 0.067459 0.067459 0.067459 0.067459 0.184352 0.184352 0.184352 0.184352 0.108876 0.108876 0.108876 0.108876 0.133253 0.133253 0.133253 0.133253 0.154958 0.154958 0.154958 0.154958 0.483085 0.483085 0.483085 0.483085 0.306583 0.306583 0.306583 0.306583 0.195105 0.195105 0.195105 0.195105 0.496413 0.496413 0.496413 0.496413 0.11631 0.11631 0.11631 0.11631 0.051501 0.051501 0.051501 0.051501 0.090853 0.090853 0.090853 0.090853 0.052354 0.052354 0.052354 0.052354 0.224014 0.224014 0.224014 0.224014 0.155645 0.155645 0.155645 0.155645 0.325076 0.325076 0.325076 0.325076 0.09642 0.09642 0.09642 0.09642 0.66951 0.66951 0.66951 0.66951 1.18402 1.18402 1.18402 1.18402 0.278564 0.278564 0.278564 0.278564 0.411885 0.411885 0.411885 0.411885 234.125 234.125 234.125 234.125 424.987 424.987 424.987 424.987 1095.56 1095.56 1095.56 1095.56 1106.31 1106.31 1106.31 1106.31 2255.2 2255.2 2255.2 2255.2 1573.58 1573.58 1573.58 1573.58 1300.07 1300.07 1300.07 1300.07 999.531 999.531 999.531 999.531 905.122 905.122 905.122 905.122 406.516 406.516 406.516 406.516 1836.14 1836.14 1836.14 1836.14 0.49946 0.49946 0.49946 0.49946 0.469563 0.469563 0.469563 0.469563 0.499783 0.499783 0.499783 0.499783 0.544865 0.544865 0.544865 0.544865 0.948938 0.948938 0.948938 0.948938 0.096372 0.096372 0.096372 0.096372 0.240701 0.240701 0.240701 0.240701 0.550852 0.550852 0.550852 0.550852 1642.04 1642.04 1642.04 1642.04 711.143 711.143 711.143 711.143 1645.19 1645.19 1645.19 1645.19 2645.89 2645.89 2645.89 2645.89 3943.95 3943.95 3943.95 3943.95 0.20286 0.20286 0.20286 0.20286 0.078856 0.078856 0.078856 0.078856 0.036672 0.036672 0.036672 0.036672 0.007335 0.007335 0.007335 0.007335 0.015969 0.015969 0.015969 0.015969 0.193414 0.193414 0.193414 0.193414 0.428605 0.428605 0.428605 0.428605 0.033142 0.033142 0.033142 0.033142 0.030515 0.030515 0.030515 0.030515 0.092347 0.092347 0.092347 0.092347 0.266814 0.266814 0.266814 0.266814 0.09624 0.09624 0.09624 0.09624 0.006912 0.006912 0.006912 0.006912 0.021012 0.021012 0.021012 0.021012 0.044564 0.044564 0.044564 0.044564 0.198977 0.198977 0.198977 0.198977 0.280883 0.280883 0.280883 0.280883 0.048445 0.048445 0.048445 0.048445 0.071201 0.071201 0.071201 0.071201 0.174757 0.174757 0.174757 0.174757 0.194152 0.194152 0.194152 0.194152 0.160674 0.160674 0.160674 0.160674 0.206894 0.206894 0.206894 0.206894 0.140925 0.140925 0.140925 0.140925 0.202568 0.202568 0.202568 0.202568 0.087437 0.087437 0.087437 0.087437 0.212294 0.212294 0.212294 0.212294 0.160059 0.160059 0.160059 0.160059 0.096425 0.096425 0.096425 0.096425 0.114377 0.114377 0.114377 0.114377 0.012685 0.012685 0.012685 0.012685 0.023873 0.023873 0.023873 0.023873 0.263831 0.263831 0.263831 0.263831 0.269463 0.269463 0.269463 0.269463 387.368 387.368 387.368 387.368 75.7642 75.7642 75.7642 75.7642 272.288 272.288 272.288 272.288 399.376 399.376 399.376 399.376 773.023 773.023 773.023 773.023 1280.59 1280.59 1280.59 1280.59 1201.61 1201.61 1201.61 1201.61 2739.88 2739.88 2739.88 2739.88 1088.63 1088.63 1088.63 1088.63 824.99 824.99 824.99 824.99 927.518 927.518 927.518 927.518 0.54066 0.54066 0.54066 0.54066 0.348934 0.348934 0.348934 0.348934 0.765123 0.765123 0.765123 0.765123 0.966609 0.966609 0.966609 0.966609 0.258257 0.258257 0.258257 0.258257 0.3704 0.3704 0.3704 0.3704 0.246525 0.246525 0.246525 0.246525 0.083567 0.083567 0.083567 0.083567 0.311202 0.311202 0.311202 0.311202 0.236866 0.236866 0.236866 0.236866 2605.31 2605.31 2605.31 2605.31 1032.63 1032.63 1032.63 1032.63 2668.15 2668.15 2668.15 2668.15 3062.38 3062.38 3062.38 3062.38 7002.95 7002.95 7002.95 7002.95 0.106205 0.106205 0.106205 0.106205 0.037934 0.037934 0.037934 0.037934 0.022543 0.022543 0.022543 0.022543 0.00798 0.00798 0.00798 0.00798 0.021433 0.021433 0.021433 0.021433 0.068137 0.068137 0.068137 0.068137 0.097756 0.097756 0.097756 0.097756 0.054611 0.054611 0.054611 0.054611 0.087329 0.087329 0.087329 0.087329 0.365235 0.365235 0.365235 0.365235 0.206311 0.206311 0.206311 0.206311 0.225838 0.225838 0.225838 0.225838 0.014175 0.014175 0.014175 0.014175 0.093917 0.093917 0.093917 0.093917 0.147464 0.147464 0.147464 0.147464 0.127089 0.127089 0.127089 0.127089 0.123124 0.123124 0.123124 0.123124 0.061048 0.061048 0.061048 0.061048 0.045663 0.045663 0.045663 0.045663 0.527484 0.527484 0.527484 0.527484 0.146758 0.146758 0.146758 0.146758 0.043722 0.043722 0.043722 0.043722 0.046129 0.046129 0.046129 0.046129 0.314686 0.314686 0.314686 0.314686 0.321301 0.321301 0.321301 0.321301 0.07292 0.07292 0.07292 0.07292 0.135077 0.135077 0.135077 0.135077 0.734915 0.734915 0.734915 0.734915 0.031507 0.031507 0.031507 0.031507 0.067603 0.067603 0.067603 0.067603 0.050957 0.050957 0.050957 0.050957 0.045517 0.045517 0.045517 0.045517 0.068918 0.068918 0.068918 0.068918 155.185 155.185 155.185 155.185 288.834 288.834 288.834 288.834 160.152 160.152 160.152 160.152 738.407 738.407 738.407 738.407 240.059 240.059 240.059 240.059 727.709 727.709 727.709 727.709 905.819 905.819 905.819 905.819 1075.08 1075.08 1075.08 1075.08 2040.23 2040.23 2040.23 2040.23 720.531 720.531 720.531 720.531 933.1 933.1 933.1 933.1 0.06236 0.06236 0.06236 0.06236 0.165794 0.165794 0.165794 0.165794 0.594654 0.594654 0.594654 0.594654 0.106784 0.106784 0.106784 0.106784 0.25648 0.25648 0.25648 0.25648 0.326122 0.326122 0.326122 0.326122 0.501361 0.501361 0.501361 0.501361 0.517184 0.517184 0.517184 0.517184 0.384501 0.384501 0.384501 0.384501 0.409251 0.409251 0.409251 0.409251 0.131032 0.131032 0.131032 0.131032 0.191017 0.191017 0.191017 0.191017 1064.13 1064.13 1064.13 1064.13 2710.59 2710.59 2710.59 2710.59 6095.77 6095.77 6095.77 6095.77 4363.11 4363.11 4363.11 4363.11 0.084503 0.084503 0.084503 0.084503 0.094358 0.094358 0.094358 0.094358 0.063875 0.063875 0.063875 0.063875 0.005136 0.005136 0.005136 0.005136 0.016372 0.016372 0.016372 0.016372 0.009521 0.009521 0.009521 0.009521 2973.84 2973.84 2973.84 2973.84 0.049377 0.049377 0.049377 0.049377 0.048502 0.048502 0.048502 0.048502 0.293504 0.293504 0.293504 0.293504 0.379786 0.379786 0.379786 0.379786 0.314481 0.314481 0.314481 0.314481 0.071515 0.071515 0.071515 0.071515 0.170525 0.170525 0.170525 0.170525 0.482125 0.482125 0.482125 0.482125 0.222912 0.222912 0.222912 0.222912 0.032499 0.032499 0.032499 0.032499 0.123065 0.123065 0.123065 0.123065 0.385009 0.385009 0.385009 0.385009 1.38968 1.38968 1.38968 1.38968 0.405848 0.405848 0.405848 0.405848 0.145522 0.145522 0.145522 0.145522 0.351856 0.351856 0.351856 0.351856 0.314536 0.314536 0.314536 0.314536 1.60239 1.60239 1.60239 1.60239 0.184524 0.184524 0.184524 0.184524 0.150174 0.150174 0.150174 0.150174 0.298758 0.298758 0.298758 0.298758 0.153094 0.153094 0.153094 0.153094 0.082973 0.082973 0.082973 0.082973 0.120594 0.120594 0.120594 0.120594 0.013628 0.013628 0.013628 0.013628 0.022639 0.022639 0.022639 0.022639 0.078868 0.078868 0.078868 0.078868 0.20267 0.20267 0.20267 0.20267 0.175809 0.175809 0.175809 0.175809 0.27639 0.27639 0.27639 0.27639 0.347554 0.347554 0.347554 0.347554 1121.89 1121.89 1121.89 1121.89 699.222 699.222 699.222 699.222 0.083119 0.083119 0.083119 0.083119 0.054224 0.054224 0.054224 0.054224 0.062771 0.062771 0.062771 0.062771 0.228365 0.228365 0.228365 0.228365 0.093688 0.093688 0.093688 0.093688 0.103631 0.103631 0.103631 0.103631 0.17209 0.17209 0.17209 0.17209 0.192014 0.192014 0.192014 0.192014 0.679966 0.679966 0.679966 0.679966 0.319965 0.319965 0.319965 0.319965 0.42769 0.42769 0.42769 0.42769 0.040243 0.040243 0.040243 0.040243 0.082957 0.082957 0.082957 0.082957 0.101812 0.101812 0.101812 0.101812 0.044449 0.044449 0.044449 0.044449 0.114843 0.114843 0.114843 0.114843 882.356 882.356 882.356 882.356 3588.58 3588.58 3588.58 3588.58 8586.58 8586.58 8586.58 8586.58 7355.97 7355.97 7355.97 7355.97 3127.13 3127.13 3127.13 3127.13 0.292766 0.292766 0.292766 0.292766 0.012618 0.012618 0.012618 0.012618 1209.39 1209.39 1209.39 1209.39 208.097 208.097 208.097 208.097 399.393 399.393 399.393 399.393 1807.27 1807.27 1807.27 1807.27 0.13628 0.13628 0.13628 0.13628 0.0839 0.0839 0.0839 0.0839 0.170537 0.170537 0.170537 0.170537 0.18606 0.18606 0.18606 0.18606 0.049074 0.049074 0.049074 0.049074 0.028402 0.028402 0.028402 0.028402 0.050522 0.050522 0.050522 0.050522 0.137099 0.137099 0.137099 0.137099 0.074992 0.074992 0.074992 0.074992 0.355778 0.355778 0.355778 0.355778 0.097611 0.097611 0.097611 0.097611 0.356712 0.356712 0.356712 0.356712 0.162348 0.162348 0.162348 0.162348 0.314062 0.314062 0.314062 0.314062 0.111858 0.111858 0.111858 0.111858 0.308451 0.308451 0.308451 0.308451 0.11153 0.11153 0.11153 0.11153 0.313544 0.313544 0.313544 0.313544 0.04684 0.04684 0.04684 0.04684 0.117631 0.117631 0.117631 0.117631 0.200105 0.200105 0.200105 0.200105 0.274864 0.274864 0.274864 0.274864 0.231028 0.231028 0.231028 0.231028 0.150221 0.150221 0.150221 0.150221 0.068985 0.068985 0.068985 0.068985 0.056885 0.056885 0.056885 0.056885 0.366441 0.366441 0.366441 0.366441 0.275404 0.275404 0.275404 0.275404 0.539498 0.539498 0.539498 0.539498 0.313233 0.313233 0.313233 0.313233 0.082175 0.082175 0.082175 0.082175 0.162367 0.162367 0.162367 0.162367 0.090541 0.090541 0.090541 0.090541 0.079902 0.079902 0.079902 0.079902 0.030891 0.030891 0.030891 0.030891 0.0842 0.0842 0.0842 0.0842 0.090371 0.090371 0.090371 0.090371 0.139983 0.139983 0.139983 0.139983 0.24583 0.24583 0.24583 0.24583 0.071694 0.071694 0.071694 0.071694 0.711865 0.711865 0.711865 0.711865 0.620202 0.620202 0.620202 0.620202 0.213316 0.213316 0.213316 0.213316 0.089077 0.089077 0.089077 0.089077 0.042299 0.042299 0.042299 0.042299 0.084576 0.084576 0.084576 0.084576 0.062308 0.062308 0.062308 0.062308 0.026267 0.026267 0.026267 0.026267 0.037861 0.037861 0.037861 0.037861 1985.24 1985.24 1985.24 1985.24 5409.78 5409.78 5409.78 5409.78 12210.3 12210.3 12210.3 12210.3 7386.19 7386.19 7386.19 7386.19 2909.01 2909.01 2909.01 2909.01 156.616 156.616 156.616 156.616 102.337 102.337 102.337 102.337 507.051 507.051 507.051 507.051 808.864 808.864 808.864 808.864 574.198 574.198 574.198 574.198 0.087878 0.087878 0.087878 0.087878 2.70288 2.70288 2.70288 2.70288 0.238399 0.238399 0.238399 0.238399 0.41485 0.41485 0.41485 0.41485 0.092838 0.092838 0.092838 0.092838 0.036464 0.036464 0.036464 0.036464 0.0157 0.0157 0.0157 0.0157 0.079425 0.079425 0.079425 0.079425 0.037095 0.037095 0.037095 0.037095 0.256141 0.256141 0.256141 0.256141 0.070393 0.070393 0.070393 0.070393 0.126936 0.126936 0.126936 0.126936 0.054765 0.054765 0.054765 0.054765 0.045261 0.045261 0.045261 0.045261 0.025658 0.025658 0.025658 0.025658 0.070348 0.070348 0.070348 0.070348 0.054396 0.054396 0.054396 0.054396 1.30463 1.30463 1.30463 1.30463 0.313782 0.313782 0.313782 0.313782 0.02012 0.02012 0.02012 0.02012 0.064116 0.064116 0.064116 0.064116 0.07658 0.07658 0.07658 0.07658 0.072311 0.072311 0.072311 0.072311 0.046043 0.046043 0.046043 0.046043 0.141241 0.141241 0.141241 0.141241 0.180073 0.180073 0.180073 0.180073 0.916512 0.916512 0.916512 0.916512 0.06748 0.06748 0.06748 0.06748 0.1244 0.1244 0.1244 0.1244 0.15507 0.15507 0.15507 0.15507 0.083356 0.083356 0.083356 0.083356 0.06449 0.06449 0.06449 0.06449 0.09988 0.09988 0.09988 0.09988 0.225494 0.225494 0.225494 0.225494 0.026335 0.026335 0.026335 0.026335 0.013214 0.013214 0.013214 0.013214 0.117966 0.117966 0.117966 0.117966 0.073788 0.073788 0.073788 0.073788 0.301312 0.301312 0.301312 0.301312 0.170958 0.170958 0.170958 0.170958 0.095964 0.095964 0.095964 0.095964 0.496038 0.496038 0.496038 0.496038 0.290015 0.290015 0.290015 0.290015 0.556928 0.556928 0.556928 0.556928 0.275443 0.275443 0.275443 0.275443 0.14201 0.14201 0.14201 0.14201 0.093609 0.093609 0.093609 0.093609 0.052076 0.052076 0.052076 0.052076 0.049561 0.049561 0.049561 0.049561 0.101601 0.101601 0.101601 0.101601 1033.28 1033.28 1033.28 1033.28 4986.62 4986.62 4986.62 4986.62 3923.65 3923.65 3923.65 3923.65 6118.31 6118.31 6118.31 6118.31 2119 2119 2119 2119 67.5461 67.5461 67.5461 67.5461 75.3047 75.3047 75.3047 75.3047 436.772 436.772 436.772 436.772 750.312 750.312 750.312 750.312 0.02275 0.02275 0.02275 0.02275 0.331958 0.331958 0.331958 0.331958 0.43207 0.43207 0.43207 0.43207 0.679683 0.679683 0.679683 0.679683 0.198954 0.198954 0.198954 0.198954 0.12606 0.12606 0.12606 0.12606 0.046336 0.046336 0.046336 0.046336 0.04177 0.04177 0.04177 0.04177 0.030087 0.030087 0.030087 0.030087 0.074645 0.074645 0.074645 0.074645 0.090959 0.090959 0.090959 0.090959 0.12335 0.12335 0.12335 0.12335 0.076499 0.076499 0.076499 0.076499 0.023417 0.023417 0.023417 0.023417 0.081127 0.081127 0.081127 0.081127 0.229701 0.229701 0.229701 0.229701 0.130567 0.130567 0.130567 0.130567 0.203132 0.203132 0.203132 0.203132 0.755775 0.755775 0.755775 0.755775 0.089368 0.089368 0.089368 0.089368 0.026788 0.026788 0.026788 0.026788 0.049066 0.049066 0.049066 0.049066 0.111585 0.111585 0.111585 0.111585 0.367434 0.367434 0.367434 0.367434 0.07389 0.07389 0.07389 0.07389 0.120849 0.120849 0.120849 0.120849 0.042571 0.042571 0.042571 0.042571 68.8614 68.8614 68.8614 68.8614 127.71 127.71 127.71 127.71 58.3426 58.3426 58.3426 58.3426 58.7447 58.7447 58.7447 58.7447 0.037406 0.037406 0.037406 0.037406 0.09365 0.09365 0.09365 0.09365 0.045284 0.045284 0.045284 0.045284 0.088075 0.088075 0.088075 0.088075 0.091028 0.091028 0.091028 0.091028 0.022855 0.022855 0.022855 0.022855 0.074875 0.074875 0.074875 0.074875 0.017317 0.017317 0.017317 0.017317 0.084308 0.084308 0.084308 0.084308 0.035443 0.035443 0.035443 0.035443 0.089844 0.089844 0.089844 0.089844 0.18215 0.18215 0.18215 0.18215 0.108252 0.108252 0.108252 0.108252 0.146245 0.146245 0.146245 0.146245 0.244061 0.244061 0.244061 0.244061 0.141488 0.141488 0.141488 0.141488 0.016347 0.016347 0.016347 0.016347 0.030161 0.030161 0.030161 0.030161 0.533823 0.533823 0.533823 0.533823 0.084995 0.084995 0.084995 0.084995 0.113642 0.113642 0.113642 0.113642 2477.03 2477.03 2477.03 2477.03 5892.26 5892.26 5892.26 5892.26 5180.22 5180.22 5180.22 5180.22 1900.24 1900.24 1900.24 1900.24 1235.86 1235.86 1235.86 1235.86 78.2404 78.2404 78.2404 78.2404 138.148 138.148 138.148 138.148 530.913 530.913 530.913 530.913 0.152647 0.152647 0.152647 0.152647 0.132411 0.132411 0.132411 0.132411 0.348136 0.348136 0.348136 0.348136 0.283669 0.283669 0.283669 0.283669 0.662602 0.662602 0.662602 0.662602 0.426443 0.426443 0.426443 0.426443 0.212662 0.212662 0.212662 0.212662 0.117133 0.117133 0.117133 0.117133 0.029749 0.029749 0.029749 0.029749 0.214839 0.214839 0.214839 0.214839 0.365173 0.365173 0.365173 0.365173 0.114358 0.114358 0.114358 0.114358 0.174946 0.174946 0.174946 0.174946 0.263235 0.263235 0.263235 0.263235 0.221455 0.221455 0.221455 0.221455 0.133478 0.133478 0.133478 0.133478 0.169717 0.169717 0.169717 0.169717 0.144974 0.144974 0.144974 0.144974 0.69261 0.69261 0.69261 0.69261 0.094415 0.094415 0.094415 0.094415 0.005757 0.005757 0.005757 0.005757 0.030165 0.030165 0.030165 0.030165 0.232193 0.232193 0.232193 0.232193 0.659569 0.659569 0.659569 0.659569 0.05573 0.05573 0.05573 0.05573 0.099338 0.099338 0.099338 0.099338 0.21054 0.21054 0.21054 0.21054 0.756503 0.756503 0.756503 0.756503 0.080655 0.080655 0.080655 0.080655 0.091187 0.091187 0.091187 0.091187 0.400016 0.400016 0.400016 0.400016 0.177042 0.177042 0.177042 0.177042 0.275676 0.275676 0.275676 0.275676 0.054397 0.054397 0.054397 0.054397 0.083207 0.083207 0.083207 0.083207 0.046181 0.046181 0.046181 0.046181 0.010377 0.010377 0.010377 0.010377 0.013536 0.013536 0.013536 0.013536 0.009184 0.009184 0.009184 0.009184 0.023393 0.023393 0.023393 0.023393 0.150711 0.150711 0.150711 0.150711 0.253338 0.253338 0.253338 0.253338 0.103203 0.103203 0.103203 0.103203 0.062676 0.062676 0.062676 0.062676 0.092631 0.092631 0.092631 0.092631 0.025033 0.025033 0.025033 0.025033 0.079681 0.079681 0.079681 0.079681 0.037075 0.037075 0.037075 0.037075 0.070066 0.070066 0.070066 0.070066 0.054278 0.054278 0.054278 0.054278 0.611395 0.611395 0.611395 0.611395 0.150878 0.150878 0.150878 0.150878 1889.99 1889.99 1889.99 1889.99 2923.67 2923.67 2923.67 2923.67 4464.25 4464.25 4464.25 4464.25 1860.48 1860.48 1860.48 1860.48 2414.88 2414.88 2414.88 2414.88 60.4538 60.4538 60.4538 60.4538 0.055876 0.055876 0.055876 0.055876 0.053631 0.053631 0.053631 0.053631 0.044894 0.044894 0.044894 0.044894 0.039786 0.039786 0.039786 0.039786 0.242933 0.242933 0.242933 0.242933 1.40066 1.40066 1.40066 1.40066 1.80289 1.80289 1.80289 1.80289 0.330279 0.330279 0.330279 0.330279 0.159838 0.159838 0.159838 0.159838 0.153115 0.153115 0.153115 0.153115 0.083296 0.083296 0.083296 0.083296 0.278708 0.278708 0.278708 0.278708 0.202391 0.202391 0.202391 0.202391 0.222611 0.222611 0.222611 0.222611 0.082169 0.082169 0.082169 0.082169 0.386018 0.386018 0.386018 0.386018 0.540738 0.540738 0.540738 0.540738 0.146036 0.146036 0.146036 0.146036 0.153522 0.153522 0.153522 0.153522 0.114936 0.114936 0.114936 0.114936 0.381717 0.381717 0.381717 0.381717 0.144536 0.144536 0.144536 0.144536 0.11495 0.11495 0.11495 0.11495 0.259266 0.259266 0.259266 0.259266 0.514562 0.514562 0.514562 0.514562 0.464869 0.464869 0.464869 0.464869 0.297475 0.297475 0.297475 0.297475 0.154392 0.154392 0.154392 0.154392 0.452478 0.452478 0.452478 0.452478 0.9834 0.9834 0.9834 0.9834 0.202624 0.202624 0.202624 0.202624 0.070266 0.070266 0.070266 0.070266 0.171428 0.171428 0.171428 0.171428 0.514842 0.514842 0.514842 0.514842 0.243374 0.243374 0.243374 0.243374 0.076122 0.076122 0.076122 0.076122 0.064779 0.064779 0.064779 0.064779 0.012952 0.012952 0.012952 0.012952 0.01179 0.01179 0.01179 0.011