# vtk DataFile Version 3.0
#This file was generated by the deal.II library on 2021/4/26 at 0:56:04
ASCII
DATASET UNSTRUCTURED_GRID

POINTS 52800 double
0 0 0
0.0166667 0 0
0 0.00454545 0
0.0166667 0.00454545 0
0.0166667 0 0
0.0333333 0 0
0.0166667 0.00454545 0
0.0333333 0.00454545 0
0.0333333 0 0
0.05 0 0
0.0333333 0.00454545 0
0.05 0.00454545 0
0.05 0 0
0.0666667 0 0
0.05 0.00454545 0
0.0666667 0.00454545 0
0.0666667 0 0
0.0833333 0 0
0.0666667 0.00454545 0
0.0833333 0.00454545 0
0.0833333 0 0
0.1 0 0
0.0833333 0.00454545 0
0.1 0.00454545 0
0.1 0 0
0.116667 0 0
0.1 0.00454545 0
0.116667 0.00454545 0
0.116667 0 0
0.133333 0 0
0.116667 0.00454545 0
0.133333 0.00454545 0
0.133333 0 0
0.15 0 0
0.133333 0.00454545 0
0.15 0.00454545 0
0.15 0 0
0.166667 0 0
0.15 0.00454545 0
0.166667 0.00454545 0
0.166667 0 0
0.183333 0 0
0.166667 0.00454545 0
0.183333 0.00454545 0
0.183333 0 0
0.2 0 0
0.183333 0.00454545 0
0.2 0.00454545 0
0.2 0 0
0.216667 0 0
0.2 0.00454545 0
0.216667 0.00454545 0
0.216667 0 0
0.233333 0 0
0.216667 0.00454545 0
0.233333 0.00454545 0
0.233333 0 0
0.25 0 0
0.233333 0.00454545 0
0.25 0.00454545 0
0.25 0 0
0.266667 0 0
0.25 0.00454545 0
0.266667 0.00454545 0
0.266667 0 0
0.283333 0 0
0.266667 0.00454545 0
0.283333 0.00454545 0
0.283333 0 0
0.3 0 0
0.283333 0.00454545 0
0.3 0.00454545 0
0.3 0 0
0.316667 0 0
0.3 0.00454545 0
0.316667 0.00454545 0
0.316667 0 0
0.333333 0 0
0.316667 0.00454545 0
0.333333 0.00454545 0
0.333333 0 0
0.35 0 0
0.333333 0.00454545 0
0.35 0.00454545 0
0.35 0 0
0.366667 0 0
0.35 0.00454545 0
0.366667 0.00454545 0
0.366667 0 0
0.383333 0 0
0.366667 0.00454545 0
0.383333 0.00454545 0
0.383333 0 0
0.4 0 0
0.383333 0.00454545 0
0.4 0.00454545 0
0.4 0 0
0.416667 0 0
0.4 0.00454545 0
0.416667 0.00454545 0
0.416667 0 0
0.433333 0 0
0.416667 0.00454545 0
0.433333 0.00454545 0
0.433333 0 0
0.45 0 0
0.433333 0.00454545 0
0.45 0.00454545 0
0.45 0 0
0.466667 0 0
0.45 0.00454545 0
0.466667 0.00454545 0
0.466667 0 0
0.483333 0 0
0.466667 0.00454545 0
0.483333 0.00454545 0
0.483333 0 0
0.5 0 0
0.483333 0.00454545 0
0.5 0.00454545 0
0.5 0 0
0.516667 0 0
0.5 0.00454545 0
0.516667 0.00454545 0
0.516667 0 0
0.533333 0 0
0.516667 0.00454545 0
0.533333 0.00454545 0
0.533333 0 0
0.55 0 0
0.533333 0.00454545 0
0.55 0.00454545 0
0.55 0 0
0.566667 0 0
0.55 0.00454545 0
0.566667 0.00454545 0
0.566667 0 0
0.583333 0 0
0.566667 0.00454545 0
0.583333 0.00454545 0
0.583333 0 0
0.6 0 0
0.583333 0.00454545 0
0.6 0.00454545 0
0.6 0 0
0.616667 0 0
0.6 0.00454545 0
0.616667 0.00454545 0
0.616667 0 0
0.633333 0 0
0.616667 0.00454545 0
0.633333 0.00454545 0
0.633333 0 0
0.65 0 0
0.633333 0.00454545 0
0.65 0.00454545 0
0.65 0 0
0.666667 0 0
0.65 0.00454545 0
0.666667 0.00454545 0
0.666667 0 0
0.683333 0 0
0.666667 0.00454545 0
0.683333 0.00454545 0
0.683333 0 0
0.7 0 0
0.683333 0.00454545 0
0.7 0.00454545 0
0.7 0 0
0.716667 0 0
0.7 0.00454545 0
0.716667 0.00454545 0
0.716667 0 0
0.733333 0 0
0.716667 0.00454545 0
0.733333 0.00454545 0
0.733333 0 0
0.75 0 0
0.733333 0.00454545 0
0.75 0.00454545 0
0.75 0 0
0.766667 0 0
0.75 0.00454545 0
0.766667 0.00454545 0
0.766667 0 0
0.783333 0 0
0.766667 0.00454545 0
0.783333 0.00454545 0
0.783333 0 0
0.8 0 0
0.783333 0.00454545 0
0.8 0.00454545 0
0.8 0 0
0.816667 0 0
0.8 0.00454545 0
0.816667 0.00454545 0
0.816667 0 0
0.833333 0 0
0.816667 0.00454545 0
0.833333 0.00454545 0
0.833333 0 0
0.85 0 0
0.833333 0.00454545 0
0.85 0.00454545 0
0.85 0 0
0.866667 0 0
0.85 0.00454545 0
0.866667 0.00454545 0
0.866667 0 0
0.883333 0 0
0.866667 0.00454545 0
0.883333 0.00454545 0
0.883333 0 0
0.9 0 0
0.883333 0.00454545 0
0.9 0.00454545 0
0.9 0 0
0.916667 0 0
0.9 0.00454545 0
0.916667 0.00454545 0
0.916667 0 0
0.933333 0 0
0.916667 0.00454545 0
0.933333 0.00454545 0
0.933333 0 0
0.95 0 0
0.933333 0.00454545 0
0.95 0.00454545 0
0.95 0 0
0.966667 0 0
0.95 0.00454545 0
0.966667 0.00454545 0
0.966667 0 0
0.983333 0 0
0.966667 0.00454545 0
0.983333 0.00454545 0
0.983333 0 0
1 0 0
0.983333 0.00454545 0
1 0.00454545 0
0 0.00454545 0
0.0166667 0.00454545 0
0 0.00909091 0
0.0166667 0.00909091 0
0.0166667 0.00454545 0
0.0333333 0.00454545 0
0.0166667 0.00909091 0
0.0333333 0.00909091 0
0.0333333 0.00454545 0
0.05 0.00454545 0
0.0333333 0.00909091 0
0.05 0.00909091 0
0.05 0.00454545 0
0.0666667 0.00454545 0
0.05 0.00909091 0
0.0666667 0.00909091 0
0.0666667 0.00454545 0
0.0833333 0.00454545 0
0.0666667 0.00909091 0
0.0833333 0.00909091 0
0.0833333 0.00454545 0
0.1 0.00454545 0
0.0833333 0.00909091 0
0.1 0.00909091 0
0.1 0.00454545 0
0.116667 0.00454545 0
0.1 0.00909091 0
0.116667 0.00909091 0
0.116667 0.00454545 0
0.133333 0.00454545 0
0.116667 0.00909091 0
0.133333 0.00909091 0
0.133333 0.00454545 0
0.15 0.00454545 0
0.133333 0.00909091 0
0.15 0.00909091 0
0.15 0.00454545 0
0.166667 0.00454545 0
0.15 0.00909091 0
0.166667 0.00909091 0
0.166667 0.00454545 0
0.183333 0.00454545 0
0.166667 0.00909091 0
0.183333 0.00909091 0
0.183333 0.00454545 0
0.2 0.00454545 0
0.183333 0.00909091 0
0.2 0.00909091 0
0.2 0.00454545 0
0.216667 0.00454545 0
0.2 0.00909091 0
0.216667 0.00909091 0
0.216667 0.00454545 0
0.233333 0.00454545 0
0.216667 0.00909091 0
0.233333 0.00909091 0
0.233333 0.00454545 0
0.25 0.00454545 0
0.233333 0.00909091 0
0.25 0.00909091 0
0.25 0.00454545 0
0.266667 0.00454545 0
0.25 0.00909091 0
0.266667 0.00909091 0
0.266667 0.00454545 0
0.283333 0.00454545 0
0.266667 0.00909091 0
0.283333 0.00909091 0
0.283333 0.00454545 0
0.3 0.00454545 0
0.283333 0.00909091 0
0.3 0.00909091 0
0.3 0.00454545 0
0.316667 0.00454545 0
0.3 0.00909091 0
0.316667 0.00909091 0
0.316667 0.00454545 0
0.333333 0.00454545 0
0.316667 0.00909091 0
0.333333 0.00909091 0
0.333333 0.00454545 0
0.35 0.00454545 0
0.333333 0.00909091 0
0.35 0.00909091 0
0.35 0.00454545 0
0.366667 0.00454545 0
0.35 0.00909091 0
0.366667 0.00909091 0
0.366667 0.00454545 0
0.383333 0.00454545 0
0.366667 0.00909091 0
0.383333 0.00909091 0
0.383333 0.00454545 0
0.4 0.00454545 0
0.383333 0.00909091 0
0.4 0.00909091 0
0.4 0.00454545 0
0.416667 0.00454545 0
0.4 0.00909091 0
0.416667 0.00909091 0
0.416667 0.00454545 0
0.433333 0.00454545 0
0.416667 0.00909091 0
0.433333 0.00909091 0
0.433333 0.00454545 0
0.45 0.00454545 0
0.433333 0.00909091 0
0.45 0.00909091 0
0.45 0.00454545 0
0.466667 0.00454545 0
0.45 0.00909091 0
0.466667 0.00909091 0
0.466667 0.00454545 0
0.483333 0.00454545 0
0.466667 0.00909091 0
0.483333 0.00909091 0
0.483333 0.00454545 0
0.5 0.00454545 0
0.483333 0.00909091 0
0.5 0.00909091 0
0.5 0.00454545 0
0.516667 0.00454545 0
0.5 0.00909091 0
0.516667 0.00909091 0
0.516667 0.00454545 0
0.533333 0.00454545 0
0.516667 0.00909091 0
0.533333 0.00909091 0
0.533333 0.00454545 0
0.55 0.00454545 0
0.533333 0.00909091 0
0.55 0.00909091 0
0.55 0.00454545 0
0.566667 0.00454545 0
0.55 0.00909091 0
0.566667 0.00909091 0
0.566667 0.00454545 0
0.583333 0.00454545 0
0.566667 0.00909091 0
0.583333 0.00909091 0
0.583333 0.00454545 0
0.6 0.00454545 0
0.583333 0.00909091 0
0.6 0.00909091 0
0.6 0.00454545 0
0.616667 0.00454545 0
0.6 0.00909091 0
0.616667 0.00909091 0
0.616667 0.00454545 0
0.633333 0.00454545 0
0.616667 0.00909091 0
0.633333 0.00909091 0
0.633333 0.00454545 0
0.65 0.00454545 0
0.633333 0.00909091 0
0.65 0.00909091 0
0.65 0.00454545 0
0.666667 0.00454545 0
0.65 0.00909091 0
0.666667 0.00909091 0
0.666667 0.00454545 0
0.683333 0.00454545 0
0.666667 0.00909091 0
0.683333 0.00909091 0
0.683333 0.00454545 0
0.7 0.00454545 0
0.683333 0.00909091 0
0.7 0.00909091 0
0.7 0.00454545 0
0.716667 0.00454545 0
0.7 0.00909091 0
0.716667 0.00909091 0
0.716667 0.00454545 0
0.733333 0.00454545 0
0.716667 0.00909091 0
0.733333 0.00909091 0
0.733333 0.00454545 0
0.75 0.00454545 0
0.733333 0.00909091 0
0.75 0.00909091 0
0.75 0.00454545 0
0.766667 0.00454545 0
0.75 0.00909091 0
0.766667 0.00909091 0
0.766667 0.00454545 0
0.783333 0.00454545 0
0.766667 0.00909091 0
0.783333 0.00909091 0
0.783333 0.00454545 0
0.8 0.00454545 0
0.783333 0.00909091 0
0.8 0.00909091 0
0.8 0.00454545 0
0.816667 0.00454545 0
0.8 0.00909091 0
0.816667 0.00909091 0
0.816667 0.00454545 0
0.833333 0.00454545 0
0.816667 0.00909091 0
0.833333 0.00909091 0
0.833333 0.00454545 0
0.85 0.00454545 0
0.833333 0.00909091 0
0.85 0.00909091 0
0.85 0.00454545 0
0.866667 0.00454545 0
0.85 0.00909091 0
0.866667 0.00909091 0
0.866667 0.00454545 0
0.883333 0.00454545 0
0.866667 0.00909091 0
0.883333 0.00909091 0
0.883333 0.00454545 0
0.9 0.00454545 0
0.883333 0.00909091 0
0.9 0.00909091 0
0.9 0.00454545 0
0.916667 0.00454545 0
0.9 0.00909091 0
0.916667 0.00909091 0
0.916667 0.00454545 0
0.933333 0.00454545 0
0.916667 0.00909091 0
0.933333 0.00909091 0
0.933333 0.00454545 0
0.95 0.00454545 0
0.933333 0.00909091 0
0.95 0.00909091 0
0.95 0.00454545 0
0.966667 0.00454545 0
0.95 0.00909091 0
0.966667 0.00909091 0
0.966667 0.00454545 0
0.983333 0.00454545 0
0.966667 0.00909091 0
0.983333 0.00909091 0
0.983333 0.00454545 0
1 0.00454545 0
0.983333 0.00909091 0
1 0.00909091 0
0 0.00909091 0
0.0166667 0.00909091 0
0 0.0136364 0
0.0166667 0.0136364 0
0.0166667 0.00909091 0
0.0333333 0.00909091 0
0.0166667 0.0136364 0
0.0333333 0.0136364 0
0.0333333 0.00909091 0
0.05 0.00909091 0
0.0333333 0.0136364 0
0.05 0.0136364 0
0.05 0.00909091 0
0.0666667 0.00909091 0
0.05 0.0136364 0
0.0666667 0.0136364 0
0.0666667 0.00909091 0
0.0833333 0.00909091 0
0.0666667 0.0136364 0
0.0833333 0.0136364 0
0.0833333 0.00909091 0
0.1 0.00909091 0
0.0833333 0.0136364 0
0.1 0.0136364 0
0.1 0.00909091 0
0.116667 0.00909091 0
0.1 0.0136364 0
0.116667 0.0136364 0
0.116667 0.00909091 0
0.133333 0.00909091 0
0.116667 0.0136364 0
0.133333 0.0136364 0
0.133333 0.00909091 0
0.15 0.00909091 0
0.133333 0.0136364 0
0.15 0.0136364 0
0.15 0.00909091 0
0.166667 0.00909091 0
0.15 0.0136364 0
0.166667 0.0136364 0
0.166667 0.00909091 0
0.183333 0.00909091 0
0.166667 0.0136364 0
0.183333 0.0136364 0
0.183333 0.00909091 0
0.2 0.00909091 0
0.183333 0.0136364 0
0.2 0.0136364 0
0.2 0.00909091 0
0.216667 0.00909091 0
0.2 0.0136364 0
0.216667 0.0136364 0
0.216667 0.00909091 0
[...]
POINT_DATA 52800
SCALARS Permeabiity double 1
LOOKUP_TABLE default
0.064542 0.064542 0.064542 0.064542 0.034083 0.034083 0.034083 0.034083 0.033865 0.033865 0.033865 0.033865 12.5843 12.5843 12.5843 12.5843 25.5056 25.5056 25.5056 25.5056 49.5567 49.5567 49.5567 49.5567 110.053 110.053 110.053 110.053 3.16577 3.16577 3.16577 3.16577 1864.72 1864.72 1864.72 1864.72 554.893 554.893 554.893 554.893 778.923 778.923 778.923 778.923 166.978 166.978 166.978 166.978 1152.88 1152.88 1152.88 1152.88 430.234 430.234 430.234 430.234 940.057 940.057 940.057 940.057 345.371 345.371 345.371 345.371 229.366 229.366 229.366 229.366 390.366 390.366 390.366 390.366 744.795 744.795 744.795 744.795 110.793 110.793 110.793 110.793 189.916 189.916 189.916 189.916 61.1754 61.1754 61.1754 61.1754 45.3411 45.3411 45.3411 45.3411 299.3 299.3 299.3 299.3 268.926 268.926 268.926 268.926 51.6187 51.6187 51.6187 51.6187 25.6655 25.6655 25.6655 25.6655 116.14 116.14 116.14 116.14 0.108574 0.108574 0.108574 0.108574 0.305843 0.305843 0.305843 0.305843 0.117935 0.117935 0.117935 0.117935 0.097815 0.097815 0.097815 0.097815 0.182153 0.182153 0.182153 0.182153 0.139709 0.139709 0.139709 0.139709 0.091116 0.091116 0.091116 0.091116 0.046364 0.046364 0.046364 0.046364 0.102973 0.102973 0.102973 0.102973 0.079578 0.079578 0.079578 0.079578 0.013536 0.013536 0.013536 0.013536 0.03645 0.03645 0.03645 0.03645 0.105763 0.105763 0.105763 0.105763 0.455753 0.455753 0.455753 0.455753 0.191433 0.191433 0.191433 0.191433 0.081675 0.081675 0.081675 0.081675 521.466 521.466 521.466 521.466 588.829 588.829 588.829 588.829 425.18 425.18 425.18 425.18 60.5985 60.5985 60.5985 60.5985 71.6365 71.6365 71.6365 71.6365 285.381 285.381 285.381 285.381 361.312 361.312 361.312 361.312 17.0559 17.0559 17.0559 17.0559 47.5553 47.5553 47.5553 47.5553 148.494 148.494 148.494 148.494 65.4293 65.4293 65.4293 65.4293 34.7975 34.7975 34.7975 34.7975 111.847 111.847 111.847 111.847 136.377 136.377 136.377 136.377 98.327 98.327 98.327 98.327 169.982 169.982 169.982 169.982 0.112859 0.112859 0.112859 0.112859 0.106339 0.106339 0.106339 0.106339 0.081667 0.081667 0.081667 0.081667 0.052393 0.052393 0.052393 0.052393 32.5406 32.5406 32.5406 32.5406 36.4773 36.4773 36.4773 36.4773 166.464 166.464 166.464 166.464 2237.73 2237.73 2237.73 2237.73 678.126 678.126 678.126 678.126 492.443 492.443 492.443 492.443 793.614 793.614 793.614 793.614 285.868 285.868 285.868 285.868 1633.38 1633.38 1633.38 1633.38 676.445 676.445 676.445 676.445 371.463 371.463 371.463 371.463 426.828 426.828 426.828 426.828 379.784 379.784 379.784 379.784 369.904 369.904 369.904 369.904 288.812 288.812 288.812 288.812 69.2993 69.2993 69.2993 69.2993 67.0023 67.0023 67.0023 67.0023 25.3266 25.3266 25.3266 25.3266 39.998 39.998 39.998 39.998 379.97 379.97 379.97 379.97 257.872 257.872 257.872 257.872 65.124 65.124 65.124 65.124 28.5949 28.5949 28.5949 28.5949 98.9134 98.9134 98.9134 98.9134 0.28881 0.28881 0.28881 0.28881 0.33028 0.33028 0.33028 0.33028 0.258723 0.258723 0.258723 0.258723 0.123302 0.123302 0.123302 0.123302 0.048856 0.048856 0.048856 0.048856 0.225133 0.225133 0.225133 0.225133 0.375646 0.375646 0.375646 0.375646 0.026637 0.026637 0.026637 0.026637 0.059152 0.059152 0.059152 0.059152 0.034875 0.034875 0.034875 0.034875 0.01443 0.01443 0.01443 0.01443 0.019086 0.019086 0.019086 0.019086 0.117672 0.117672 0.117672 0.117672 0.099196 0.099196 0.099196 0.099196 0.07389 0.07389 0.07389 0.07389 0.034775 0.034775 0.034775 0.034775 432.539 432.539 432.539 432.539 324.005 324.005 324.005 324.005 52.0783 52.0783 52.0783 52.0783 142.617 142.617 142.617 142.617 195.34 195.34 195.34 195.34 231.215 231.215 231.215 231.215 246.727 246.727 246.727 246.727 317.301 317.301 317.301 317.301 61.9883 61.9883 61.9883 61.9883 65.189 65.189 65.189 65.189 258.83 258.83 258.83 258.83 34.4755 34.4755 34.4755 34.4755 138.53 138.53 138.53 138.53 276.582 276.582 276.582 276.582 166.548 166.548 166.548 166.548 293.286 293.286 293.286 293.286 0.065883 0.065883 0.065883 0.065883 0.097745 0.097745 0.097745 0.097745 0.209375 0.209375 0.209375 0.209375 0.798755 0.798755 0.798755 0.798755 0.493023 0.493023 0.493023 0.493023 0.234431 0.234431 0.234431 0.234431 44.7653 44.7653 44.7653 44.7653 200.053 200.053 200.053 200.053 608.829 608.829 608.829 608.829 190.162 190.162 190.162 190.162 566.786 566.786 566.786 566.786 230.073 230.073 230.073 230.073 998.898 998.898 998.898 998.898 648.594 648.594 648.594 648.594 145.204 145.204 145.204 145.204 617.664 617.664 617.664 617.664 574.48 574.48 574.48 574.48 340.947 340.947 340.947 340.947 139.568 139.568 139.568 139.568 73.1811 73.1811 73.1811 73.1811 85.9641 85.9641 85.9641 85.9641 22.2854 22.2854 22.2854 22.2854 47.0584 47.0584 47.0584 47.0584 120.339 120.339 120.339 120.339 235.959 235.959 235.959 235.959 27.214 27.214 27.214 27.214 24.5286 24.5286 24.5286 24.5286 70.7725 70.7725 70.7725 70.7725 0.632611 0.632611 0.632611 0.632611 0.18382 0.18382 0.18382 0.18382 0.19455 0.19455 0.19455 0.19455 0.127326 0.127326 0.127326 0.127326 0.086306 0.086306 0.086306 0.086306 0.157916 0.157916 0.157916 0.157916 0.238275 0.238275 0.238275 0.238275 0.381311 0.381311 0.381311 0.381311 0.157219 0.157219 0.157219 0.157219 0.244689 0.244689 0.244689 0.244689 0.043473 0.043473 0.043473 0.043473 0.122838 0.122838 0.122838 0.122838 0.259255 0.259255 0.259255 0.259255 0.087617 0.087617 0.087617 0.087617 0.036858 0.036858 0.036858 0.036858 0.055697 0.055697 0.055697 0.055697 246.602 246.602 246.602 246.602 376.716 376.716 376.716 376.716 87.0355 87.0355 87.0355 87.0355 252.935 252.935 252.935 252.935 338.937 338.937 338.937 338.937 141.435 141.435 141.435 141.435 308.202 308.202 308.202 308.202 237.844 237.844 237.844 237.844 47.0304 47.0304 47.0304 47.0304 90.0552 90.0552 90.0552 90.0552 141.259 141.259 141.259 141.259 38.3049 38.3049 38.3049 38.3049 423.099 423.099 423.099 423.099 231.603 231.603 231.603 231.603 144.906 144.906 144.906 144.906 193.519 193.519 193.519 193.519 0.195824 0.195824 0.195824 0.195824 0.029963 0.029963 0.029963 0.029963 0.166229 0.166229 0.166229 0.166229 0.188737 0.188737 0.188737 0.188737 0.636525 0.636525 0.636525 0.636525 0.135894 0.135894 0.135894 0.135894 0.469282 0.469282 0.469282 0.469282 0.069859 0.069859 0.069859 0.069859 84.0927 84.0927 84.0927 84.0927 297.66 297.66 297.66 297.66 709.966 709.966 709.966 709.966 332.231 332.231 332.231 332.231 1179.33 1179.33 1179.33 1179.33 960.021 960.021 960.021 960.021 99.8346 99.8346 99.8346 99.8346 679.55 679.55 679.55 679.55 690.793 690.793 690.793 690.793 230.289 230.289 230.289 230.289 64.782 64.782 64.782 64.782 74.9624 74.9624 74.9624 74.9624 63.9688 63.9688 63.9688 63.9688 29.3263 29.3263 29.3263 29.3263 31.055 31.055 31.055 31.055 62.8576 62.8576 62.8576 62.8576 78.211 78.211 78.211 78.211 49.5093 49.5093 49.5093 49.5093 27.5379 27.5379 27.5379 27.5379 52.3005 52.3005 52.3005 52.3005 0.146831 0.146831 0.146831 0.146831 0.073425 0.073425 0.073425 0.073425 0.079791 0.079791 0.079791 0.079791 0.231179 0.231179 0.231179 0.231179 0.156856 0.156856 0.156856 0.156856 0.377657 0.377657 0.377657 0.377657 0.231921 0.231921 0.231921 0.231921 0.182542 0.182542 0.182542 0.182542 0.13246 0.13246 0.13246 0.13246 0.36985 0.36985 0.36985 0.36985 0.281151 0.281151 0.281151 0.281151 0.459606 0.459606 0.459606 0.459606 0.203902 0.203902 0.203902 0.203902 0.144422 0.144422 0.144422 0.144422 0.120889 0.120889 0.120889 0.120889 0.035193 0.035193 0.035193 0.035193 51.8162 51.8162 51.8162 51.8162 279.086 279.086 279.086 279.086 98.5205 98.5205 98.5205 98.5205 165.478 165.478 165.478 165.478 205.674 205.674 205.674 205.674 84.1218 84.1218 84.1218 84.1218 126.407 126.407 126.407 126.407 144.614 144.614 144.614 144.614 141.117 141.117 141.117 141.117 84.4543 84.4543 84.4543 84.4543 98.7353 98.7353 98.7353 98.7353 29.5425 29.5425 29.5425 29.5425 30.7021 30.7021 30.7021 30.7021 32.0054 32.0054 32.0054 32.0054 64.9008 64.9008 64.9008 64.9008 190.816 190.816 190.816 190.816 0.243276 0.243276 0.243276 0.243276 0.045128 0.045128 0.045128 0.045128 0.271355 0.271355 0.271355 0.271355 0.179644 0.179644 0.179644 0.179644 0.286864 0.286864 0.286864 0.286864 0.313719 0.313719 0.313719 0.313719 0.103445 0.103445 0.103445 0.103445 0.027707 0.027707 0.027707 0.027707 65.5482 65.5482 65.5482 65.5482 192.023 192.023 192.023 192.023 1056.62 1056.62 1056.62 1056.62 451.14 451.14 451.14 451.14 568.553 568.553 568.553 568.553 884.237 884.237 884.237 884.237 143.948 143.948 143.948 143.948 218.626 218.626 218.626 218.626 354.265 354.265 354.265 354.265 223.677 223.677 223.677 223.677 182.131 182.131 182.131 182.131 73.6482 73.6482 73.6482 73.6482 12.4943 12.4943 12.4943 12.4943 23.2405 23.2405 23.2405 23.2405 24.4694 24.4694 24.4694 24.4694 120.554 120.554 120.554 120.554 87.0299 87.0299 87.0299 87.0299 59.8588 59.8588 59.8588 59.8588 63.3649 63.3649 63.3649 63.3649 57.5626 57.5626 57.5626 57.5626 205.47 205.47 205.47 205.47 0.102581 0.102581 0.102581 0.102581 0.036084 0.036084 0.036084 0.036084 0.227006 0.227006 0.227006 0.227006 0.342761 0.342761 0.342761 0.342761 0.154658 0.154658 0.154658 0.154658 0.037823 0.037823 0.037823 0.037823 0.042638 0.042638 0.042638 0.042638 0.413376 0.413376 0.413376 0.413376 0.31336 0.31336 0.31336 0.31336 1.0557 1.0557 1.0557 1.0557 0.074098 0.074098 0.074098 0.074098 0.124644 0.124644 0.124644 0.124644 0.063393 0.063393 0.063393 0.063393 0.158055 0.158055 0.158055 0.158055 0.071952 0.071952 0.071952 0.071952 0.107796 0.107796 0.107796 0.107796 161.368 161.368 161.368 161.368 108.246 108.246 108.246 108.246 289.247 289.247 289.247 289.247 122.91 122.91 122.91 122.91 205.054 205.054 205.054 205.054 483.285 483.285 483.285 483.285 86.5098 86.5098 86.5098 86.5098 38.5021 38.5021 38.5021 38.5021 49.3601 49.3601 49.3601 49.3601 34.694 34.694 34.694 34.694 21.44 21.44 21.44 21.44 222.371 222.371 222.371 222.371 340.498 340.498 340.498 340.498 35.4655 35.4655 35.4655 35.4655 382.73 382.73 382.73 382.73 0.174051 0.174051 0.174051 0.174051 0.243444 0.243444 0.243444 0.243444 0.219564 0.219564 0.219564 0.219564 0.112043 0.112043 0.112043 0.112043 0.502247 0.502247 0.502247 0.502247 0.403872 0.403872 0.403872 0.403872 0.133473 0.133473 0.133473 0.133473 44.621 44.621 44.621 44.621 49.5953 49.5953 49.5953 49.5953 205.142 205.142 205.142 205.142 110.965 110.965 110.965 110.965 231.585 231.585 231.585 231.585 598.069 598.069 598.069 598.069 241.89 241.89 241.89 241.89 127.551 127.551 127.551 127.551 257.684 257.684 257.684 257.684 301.455 301.455 301.455 301.455 264.145 264.145 264.145 264.145 205.785 205.785 205.785 205.785 945.86 945.86 945.86 945.86 406.892 406.892 406.892 406.892 33.5322 33.5322 33.5322 33.5322 88.7727 88.7727 88.7727 88.7727 139.351 139.351 139.351 139.351 43.266 43.266 43.266 43.266 31.5037 31.5037 31.5037 31.5037 50.9829 50.9829 50.9829 50.9829 70.0954 70.0954 70.0954 70.0954 116.722 116.722 116.722 116.722 0.012884 0.012884 0.012884 0.012884 0.021406 0.021406 0.021406 0.021406 0.111387 0.111387 0.111387 0.111387 0.139907 0.139907 0.139907 0.139907 0.230139 0.230139 0.230139 0.230139 0.083808 0.083808 0.083808 0.083808 0.146306 0.146306 0.146306 0.146306 0.415401 0.415401 0.415401 0.415401 0.399458 0.399458 0.399458 0.399458 0.588343 0.588343 0.588343 0.588343 0.109031 0.109031 0.109031 0.109031 0.023152 0.023152 0.023152 0.023152 0.062313 0.062313 0.062313 0.062313 0.443258 0.443258 0.443258 0.443258 0.042737 0.042737 0.042737 0.042737 0.111873 0.111873 0.111873 0.111873 0.206057 0.206057 0.206057 0.206057 833.411 833.411 833.411 833.411 200.2 200.2 200.2 200.2 185.46 185.46 185.46 185.46 139.764 139.764 139.764 139.764 433.916 433.916 433.916 433.916 115.963 115.963 115.963 115.963 43.992 43.992 43.992 43.992 58.4877 58.4877 58.4877 58.4877 38.3796 38.3796 38.3796 38.3796 15.9994 15.9994 15.9994 15.9994 142.258 142.258 142.258 142.258 272.444 272.444 272.444 272.444 125.731 125.731 125.731 125.731 374.018 374.018 374.018 374.018 0.363564 0.363564 0.363564 0.363564 0.23023 0.23023 0.23023 0.23023 0.345968 0.345968 0.345968 0.345968 0.57646 0.57646 0.57646 0.57646 0.695279 0.695279 0.695279 0.695279 0.182709 0.182709 0.182709 0.182709 12.7864 12.7864 12.7864 12.7864 22.2797 22.2797 22.2797 22.2797 72.0749 72.0749 72.0749 72.0749 293.259 293.259 293.259 293.259 69.1437 69.1437 69.1437 69.1437 144.893 144.893 144.893 144.893 185.07 185.07 185.07 185.07 65.6408 65.6408 65.6408 65.6408 227.531 227.531 227.531 227.531 69.6823 69.6823 69.6823 69.6823 112.23 112.23 112.23 112.23 163.925 163.925 163.925 163.925 110.52 110.52 110.52 110.52 557.422 557.422 557.422 557.422 414.408 414.408 414.408 414.408 44.922 44.922 44.922 44.922 90.0148 90.0148 90.0148 90.0148 218.597 218.597 218.597 218.597 32.6655 32.6655 32.6655 32.6655 31.7222 31.7222 31.7222 31.7222 28.0227 28.0227 28.0227 28.0227 82.6492 82.6492 82.6492 82.6492 82.8415 82.8415 82.8415 82.8415 0.278098 0.278098 0.278098 0.278098 0.158262 0.158262 0.158262 0.158262 0.242404 0.242404 0.242404 0.242404 0.264357 0.264357 0.264357 0.264357 0.079702 0.079702 0.079702 0.079702 0.068927 0.068927 0.068927 0.068927 0.1803 0.1803 0.1803 0.1803 0.224957 0.224957 0.224957 0.224957 0.305825 0.305825 0.305825 0.305825 0.927876 0.927876 0.927876 0.927876 0.134567 0.134567 0.134567 0.134567 0.011549 0.011549 0.011549 0.011549 0.072593 0.072593 0.072593 0.072593 0.269056 0.269056 0.269056 0.269056 0.110798 0.110798 0.110798 0.110798 1005.41 1005.41 1005.41 1005.41 403.631 403.631 403.631 403.631 357.541 357.541 357.541 357.541 179.148 179.148 179.148 179.148 227.938 227.938 227.938 227.938 169.22 169.22 169.22 169.22 248.562 248.562 248.562 248.562 256.546 256.546 256.546 256.546 135.764 135.764 135.764 135.764 46.3857 46.3857 46.3857 46.3857 87.2878 87.2878 87.2878 87.2878 80.6578 80.6578 80.6578 80.6578 268.246 268.246 268.246 268.246 110.56 110.56 110.56 110.56 70.5205 70.5205 70.5205 70.5205 354.725 354.725 354.725 354.725 0.170623 0.170623 0.170623 0.170623 0.191223 0.191223 0.191223 0.191223 1.46831 1.46831 1.46831 1.46831 0.285906 0.285906 0.285906 0.285906 1.13442 1.13442 1.13442 1.13442 0.614334 0.614334 0.614334 0.614334 14.9697 14.9697 14.9697 14.9697 31.0616 31.0616 31.0616 31.0616 70.9541 70.9541 70.9541 70.9541 232.543 232.543 232.543 232.543 179.116 179.116 179.116 179.116 120.539 120.539 120.539 120.539 133.605 133.605 133.605 133.605 89.4965 89.4965 89.4965 89.4965 52.8118 52.8118 52.8118 52.8118 379.809 379.809 379.809 379.809 200.822 200.822 200.822 200.822 100.85 100.85 100.85 100.85 75.2427 75.2427 75.2427 75.2427 157.67 157.67 157.67 157.67 347.745 347.745 347.745 347.745 206.101 206.101 206.101 206.101 229.323 229.323 229.323 229.323 114.014 114.014 114.014 114.014 20.654 20.654 20.654 20.654 33.8268 33.8268 33.8268 33.8268 40.6134 40.6134 40.6134 40.6134 76.3054 76.3054 76.3054 76.3054 22.3764 22.3764 22.3764 22.3764 63.5054 63.5054 63.5054 63.5054 0.113551 0.113551 0.113551 0.113551 0.141138 0.141138 0.141138 0.141138 0.011373 0.011373 0.011373 0.011373 0.057265 0.057265 0.057265 0.057265 0.205865 0.205865 0.205865 0.205865 0.213249 0.213249 0.213249 0.213249 0.055662 0.055662 0.055662 0.055662 0.093884 0.093884 0.093884 0.093884 0.14534 0.14534 0.14534 0.14534 0.048081 0.048081 0.048081 0.048081 0.041314 0.041314 0.041314 0.041314 0.046246 0.046246 0.046246 0.046246 0.03562 0.03562 0.03562 0.03562 760.165 760.165 760.165 760.165 1216.96 1216.96 1216.96 1216.96 745.926 745.926 745.926 745.926 795.835 795.835 795.835 795.835 99.9128 99.9128 99.9128 99.9128 204.063 204.063 204.063 204.063 123.774 123.774 123.774 123.774 253.097 253.097 253.097 253.097 204.193 204.193 204.193 204.193 152.039 152.039 152.039 152.039 138.018 138.018 138.018 138.018 84.8777 84.8777 84.8777 84.8777 82.6193 82.6193 82.6193 82.6193 104.824 104.824 104.824 104.824 76.8978 76.8978 76.8978 76.8978 59.5411 59.5411 59.5411 59.5411 152.44 152.44 152.44 152.44 0.293734 0.293734 0.293734 0.293734 0.137166 0.137166 0.137166 0.137166 0.294309 0.294309 0.294309 0.294309 4.36114 4.36114 4.36114 4.36114 0.320756 0.320756 0.320756 0.320756 0.830809 0.830809 0.830809 0.830809 27.5329 27.5329 27.5329 27.5329 64.7222 64.7222 64.7222 64.7222 31.2434 31.2434 31.2434 31.2434 177.803 177.803 177.803 177.803 211.935 211.935 211.935 211.935 158.241 158.241 158.241 158.241 69.2654 69.2654 69.2654 69.2654 56.7377 56.7377 56.7377 56.7377 307.646 307.646 307.646 307.646 339.357 339.357 339.357 339.357 257.261 257.261 257.261 257.261 60.5675 60.5675 60.5675 60.5675 76.7415 76.7415 76.7415 76.7415 169.222 169.222 169.222 169.222 444.623 444.623 444.623 444.623 208.186 208.186 208.186 208.186 372.922 372.922 372.922 372.922 89.071 89.071 89.071 89.071 34.6062 34.6062 34.6062 34.6062 36.319 36.319 36.319 36.319 27.3746 27.3746 27.3746 27.3746 106.416 106.416 106.416 106.416 24.5269 24.5269 24.5269 24.5269 75.6133 75.6133 75.6133 75.6133 2362.9 2362.9 2362.9 2362.9 0.072295 0.072295 0.072295 0.072295 0.033354 0.033354 0.033354 0.033354 0.018601 0.018601 0.018601 0.018601 0.089319 0.089319 0.089319 0.089319 0.086002 0.086002 0.086002 0.086002 0.066354 0.066354 0.066354 0.066354 0.178641 0.178641 0.178641 0.178641 0.324341 0.324341 0.324341 0.324341 0.066334 0.066334 0.066334 0.066334 0.061923 0.061923 0.061923 0.061923 0.1465 0.1465 0.1465 0.1465 0.205167 0.205167 0.205167 0.205167 459.326 459.326 459.326 459.326 444.098 444.098 444.098 444.098 699.985 699.985 699.985 699.985 768.601 768.601 768.601 768.601 99.921 99.921 99.921 99.921 170.93 170.93 170.93 170.93 233.832 233.832 233.832 233.832 1389.35 1389.35 1389.35 1389.35 377.829 377.829 377.829 377.829 235.728 235.728 235.728 235.728 251.354 251.354 251.354 251.354 104.145 104.145 104.145 104.145 64.7909 64.7909 64.7909 64.7909 76.8089 76.8089 76.8089 76.8089 0.162505 0.162505 0.162505 0.162505 0.242751 0.242751 0.242751 0.242751 0.030701 0.030701 0.030701 0.030701 0.451193 0.451193 0.451193 0.451193 0.202322 0.202322 0.202322 0.202322 0.546595 0.546595 0.546595 0.546595 0.650216 0.650216 0.650216 0.650216 0.554132 0.554132 0.554132 0.554132 0.107162 0.107162 0.107162 0.107162 46.3897 46.3897 46.3897 46.3897 83.2297 83.2297 83.2297 83.2297 37.3742 37.3742 37.3742 37.3742 213.879 213.879 213.879 213.879 51.8849 51.8849 51.8849 51.8849 22.9775 22.9775 22.9775 22.9775 74.5319 74.5319 74.5319 74.5319 168.724 168.724 168.724 168.724 187.734 187.734 187.734 187.734 234.981 234.981 234.981 234.981 232.279 232.279 232.279 232.279 30.9743 30.9743 30.9743 30.9743 294.423 294.423 294.423 294.423 566.89 566.89 566.89 566.89 529.523 529.523 529.523 529.523 245.32 245.32 245.32 245.32 313.319 313.319 313.319 313.319 257.053 257.053 257.053 257.053 385.162 385.162 385.162 385.162 157.472 157.472 157.472 157.472 129.163 129.163 129.163 129.163 135.724 135.724 135.724 135.724 27.8957 27.8957 27.8957 27.8957 78.0587 78.0587 78.0587 78.0587 3242.16 3242.16 3242.16 3242.16 975.656 975.656 975.656 975.656 0.072112 0.072112 0.072112 0.072112 0.029737 0.029737 0.029737 0.029737 0.06779 0.06779 0.06779 0.06779 0.035362 0.035362 0.035362 0.035362 0.083346 0.083346 0.083346 0.083346 0.22955 0.22955 0.22955 0.22955 0.071457 0.071457 0.071457 0.071457 0.12459 0.12459 0.12459 0.12459 0.114443 0.114443 0.114443 0.114443 3172.36 3172.36 3172.36 3172.36 278.982 278.982 278.982 278.982 589.884 589.884 589.884 589.884 584.534 584.534 584.534 584.534 403.269 403.269 403.269 403.269 750.905 750.905 750.905 750.905 217.585 217.585 217.585 217.585 194.541 194.541 194.541 194.541 164.412 164.412 164.412 164.412 467.928 467.928 467.928 467.928 1360.78 1360.78 1360.78 1360.78 290.773 290.773 290.773 290.773 253.072 253.072 253.072 253.072 355.594 355.594 355.594 355.594 196.397 196.397 196.397 196.397 326.848 326.848 326.848 326.848 0.149557 0.149557 0.149557 0.149557 0.113662 0.113662 0.113662 0.113662 0.153146 0.153146 0.153146 0.153146 0.37969 0.37969 0.37969 0.37969 0.23949 0.23949 0.23949 0.23949 0.106718 0.106718 0.106718 0.106718 0.079027 0.079027 0.079027 0.079027 0.080941 0.080941 0.080941 0.080941 0.064121 0.064121 0.0