# vtk DataFile Version 3.0
#This file was generated by the deal.II library on 2021/4/12 at 18:12:03
ASCII
DATASET UNSTRUCTURED_GRID

POINTS 52800 double
0 0 0
0.0166667 0 0
0 0.00454545 0
0.0166667 0.00454545 0
0.0166667 0 0
0.0333333 0 0
0.0166667 0.00454545 0
0.0333333 0.00454545 0
0.0333333 0 0
0.05 0 0
0.0333333 0.00454545 0
0.05 0.00454545 0
0.05 0 0
0.0666667 0 0
0.05 0.00454545 0
0.0666667 0.00454545 0
0.0666667 0 0
0.0833333 0 0
0.0666667 0.00454545 0
0.0833333 0.00454545 0
0.0833333 0 0
0.1 0 0
0.0833333 0.00454545 0
0.1 0.00454545 0
0.1 0 0
0.116667 0 0
0.1 0.00454545 0
0.116667 0.00454545 0
0.116667 0 0
0.133333 0 0
0.116667 0.00454545 0
0.133333 0.00454545 0
0.133333 0 0
0.15 0 0
0.133333 0.00454545 0
0.15 0.00454545 0
0.15 0 0
0.166667 0 0
0.15 0.00454545 0
0.166667 0.00454545 0
0.166667 0 0
0.183333 0 0
0.166667 0.00454545 0
0.183333 0.00454545 0
0.183333 0 0
0.2 0 0
0.183333 0.00454545 0
0.2 0.00454545 0
0.2 0 0
0.216667 0 0
0.2 0.00454545 0
0.216667 0.00454545 0
0.216667 0 0
0.233333 0 0
0.216667 0.00454545 0
0.233333 0.00454545 0
0.233333 0 0
0.25 0 0
0.233333 0.00454545 0
0.25 0.00454545 0
0.25 0 0
0.266667 0 0
0.25 0.00454545 0
0.266667 0.00454545 0
0.266667 0 0
0.283333 0 0
0.266667 0.00454545 0
0.283333 0.00454545 0
0.283333 0 0
0.3 0 0
0.283333 0.00454545 0
0.3 0.00454545 0
0.3 0 0
0.316667 0 0
0.3 0.00454545 0
0.316667 0.00454545 0
0.316667 0 0
0.333333 0 0
0.316667 0.00454545 0
0.333333 0.00454545 0
0.333333 0 0
0.35 0 0
0.333333 0.00454545 0
0.35 0.00454545 0
0.35 0 0
0.366667 0 0
0.35 0.00454545 0
0.366667 0.00454545 0
0.366667 0 0
0.383333 0 0
0.366667 0.00454545 0
0.383333 0.00454545 0
0.383333 0 0
0.4 0 0
0.383333 0.00454545 0
0.4 0.00454545 0
0.4 0 0
0.416667 0 0
0.4 0.00454545 0
0.416667 0.00454545 0
0.416667 0 0
0.433333 0 0
0.416667 0.00454545 0
0.433333 0.00454545 0
0.433333 0 0
0.45 0 0
0.433333 0.00454545 0
0.45 0.00454545 0
0.45 0 0
0.466667 0 0
0.45 0.00454545 0
0.466667 0.00454545 0
0.466667 0 0
0.483333 0 0
0.466667 0.00454545 0
0.483333 0.00454545 0
0.483333 0 0
0.5 0 0
0.483333 0.00454545 0
0.5 0.00454545 0
0.5 0 0
0.516667 0 0
0.5 0.00454545 0
0.516667 0.00454545 0
0.516667 0 0
0.533333 0 0
0.516667 0.00454545 0
0.533333 0.00454545 0
0.533333 0 0
0.55 0 0
0.533333 0.00454545 0
0.55 0.00454545 0
0.55 0 0
0.566667 0 0
0.55 0.00454545 0
0.566667 0.00454545 0
0.566667 0 0
0.583333 0 0
0.566667 0.00454545 0
0.583333 0.00454545 0
0.583333 0 0
0.6 0 0
0.583333 0.00454545 0
0.6 0.00454545 0
0.6 0 0
0.616667 0 0
0.6 0.00454545 0
0.616667 0.00454545 0
0.616667 0 0
0.633333 0 0
0.616667 0.00454545 0
0.633333 0.00454545 0
0.633333 0 0
0.65 0 0
0.633333 0.00454545 0
0.65 0.00454545 0
0.65 0 0
0.666667 0 0
0.65 0.00454545 0
0.666667 0.00454545 0
0.666667 0 0
0.683333 0 0
0.666667 0.00454545 0
0.683333 0.00454545 0
0.683333 0 0
0.7 0 0
0.683333 0.00454545 0
0.7 0.00454545 0
0.7 0 0
0.716667 0 0
0.7 0.00454545 0
0.716667 0.00454545 0
0.716667 0 0
0.733333 0 0
0.716667 0.00454545 0
0.733333 0.00454545 0
0.733333 0 0
0.75 0 0
0.733333 0.00454545 0
0.75 0.00454545 0
0.75 0 0
0.766667 0 0
0.75 0.00454545 0
0.766667 0.00454545 0
0.766667 0 0
0.783333 0 0
0.766667 0.00454545 0
0.783333 0.00454545 0
0.783333 0 0
0.8 0 0
0.783333 0.00454545 0
0.8 0.00454545 0
0.8 0 0
0.816667 0 0
0.8 0.00454545 0
0.816667 0.00454545 0
0.816667 0 0
0.833333 0 0
0.816667 0.00454545 0
0.833333 0.00454545 0
0.833333 0 0
0.85 0 0
0.833333 0.00454545 0
0.85 0.00454545 0
0.85 0 0
0.866667 0 0
0.85 0.00454545 0
0.866667 0.00454545 0
0.866667 0 0
0.883333 0 0
0.866667 0.00454545 0
0.883333 0.00454545 0
0.883333 0 0
0.9 0 0
0.883333 0.00454545 0
0.9 0.00454545 0
0.9 0 0
0.916667 0 0
0.9 0.00454545 0
0.916667 0.00454545 0
0.916667 0 0
0.933333 0 0
0.916667 0.00454545 0
0.933333 0.00454545 0
0.933333 0 0
0.95 0 0
0.933333 0.00454545 0
0.95 0.00454545 0
0.95 0 0
0.966667 0 0
0.95 0.00454545 0
0.966667 0.00454545 0
0.966667 0 0
0.983333 0 0
0.966667 0.00454545 0
0.983333 0.00454545 0
0.983333 0 0
1 0 0
0.983333 0.00454545 0
1 0.00454545 0
0 0.00454545 0
0.0166667 0.00454545 0
0 0.00909091 0
0.0166667 0.00909091 0
0.0166667 0.00454545 0
0.0333333 0.00454545 0
0.0166667 0.00909091 0
0.0333333 0.00909091 0
0.0333333 0.00454545 0
0.05 0.00454545 0
0.0333333 0.00909091 0
0.05 0.00909091 0
0.05 0.00454545 0
0.0666667 0.00454545 0
0.05 0.00909091 0
0.0666667 0.00909091 0
0.0666667 0.00454545 0
0.0833333 0.00454545 0
0.0666667 0.00909091 0
0.0833333 0.00909091 0
0.0833333 0.00454545 0
0.1 0.00454545 0
0.0833333 0.00909091 0
0.1 0.00909091 0
0.1 0.00454545 0
0.116667 0.00454545 0
0.1 0.00909091 0
0.116667 0.00909091 0
0.116667 0.00454545 0
0.133333 0.00454545 0
0.116667 0.00909091 0
0.133333 0.00909091 0
0.133333 0.00454545 0
0.15 0.00454545 0
0.133333 0.00909091 0
0.15 0.00909091 0
0.15 0.00454545 0
0.166667 0.00454545 0
0.15 0.00909091 0
0.166667 0.00909091 0
0.166667 0.00454545 0
0.183333 0.00454545 0
0.166667 0.00909091 0
0.183333 0.00909091 0
0.183333 0.00454545 0
0.2 0.00454545 0
0.183333 0.00909091 0
0.2 0.00909091 0
0.2 0.00454545 0
0.216667 0.00454545 0
0.2 0.00909091 0
0.216667 0.00909091 0
0.216667 0.00454545 0
0.233333 0.00454545 0
0.216667 0.00909091 0
0.233333 0.00909091 0
0.233333 0.00454545 0
0.25 0.00454545 0
0.233333 0.00909091 0
0.25 0.00909091 0
0.25 0.00454545 0
0.266667 0.00454545 0
0.25 0.00909091 0
0.266667 0.00909091 0
0.266667 0.00454545 0
0.283333 0.00454545 0
0.266667 0.00909091 0
0.283333 0.00909091 0
0.283333 0.00454545 0
0.3 0.00454545 0
0.283333 0.00909091 0
0.3 0.00909091 0
0.3 0.00454545 0
0.316667 0.00454545 0
0.3 0.00909091 0
0.316667 0.00909091 0
0.316667 0.00454545 0
0.333333 0.00454545 0
0.316667 0.00909091 0
0.333333 0.00909091 0
0.333333 0.00454545 0
0.35 0.00454545 0
0.333333 0.00909091 0
0.35 0.00909091 0
0.35 0.00454545 0
0.366667 0.00454545 0
0.35 0.00909091 0
0.366667 0.00909091 0
0.366667 0.00454545 0
0.383333 0.00454545 0
0.366667 0.00909091 0
0.383333 0.00909091 0
0.383333 0.00454545 0
0.4 0.00454545 0
0.383333 0.00909091 0
0.4 0.00909091 0
0.4 0.00454545 0
0.416667 0.00454545 0
0.4 0.00909091 0
0.416667 0.00909091 0
0.416667 0.00454545 0
0.433333 0.00454545 0
0.416667 0.00909091 0
0.433333 0.00909091 0
0.433333 0.00454545 0
0.45 0.00454545 0
0.433333 0.00909091 0
0.45 0.00909091 0
0.45 0.00454545 0
0.466667 0.00454545 0
0.45 0.00909091 0
0.466667 0.00909091 0
0.466667 0.00454545 0
0.483333 0.00454545 0
0.466667 0.00909091 0
0.483333 0.00909091 0
0.483333 0.00454545 0
0.5 0.00454545 0
0.483333 0.00909091 0
0.5 0.00909091 0
0.5 0.00454545 0
0.516667 0.00454545 0
0.5 0.00909091 0
0.516667 0.00909091 0
0.516667 0.00454545 0
0.533333 0.00454545 0
0.516667 0.00909091 0
0.533333 0.00909091 0
0.533333 0.00454545 0
0.55 0.00454545 0
0.533333 0.00909091 0
0.55 0.00909091 0
0.55 0.00454545 0
0.566667 0.00454545 0
0.55 0.00909091 0
0.566667 0.00909091 0
0.566667 0.00454545 0
0.583333 0.00454545 0
0.566667 0.00909091 0
0.583333 0.00909091 0
0.583333 0.00454545 0
0.6 0.00454545 0
0.583333 0.00909091 0
0.6 0.00909091 0
0.6 0.00454545 0
0.616667 0.00454545 0
0.6 0.00909091 0
0.616667 0.00909091 0
0.616667 0.00454545 0
0.633333 0.00454545 0
0.616667 0.00909091 0
0.633333 0.00909091 0
0.633333 0.00454545 0
0.65 0.00454545 0
0.633333 0.00909091 0
0.65 0.00909091 0
0.65 0.00454545 0
0.666667 0.00454545 0
0.65 0.00909091 0
0.666667 0.00909091 0
0.666667 0.00454545 0
0.683333 0.00454545 0
0.666667 0.00909091 0
0.683333 0.00909091 0
0.683333 0.00454545 0
0.7 0.00454545 0
0.683333 0.00909091 0
0.7 0.00909091 0
0.7 0.00454545 0
0.716667 0.00454545 0
0.7 0.00909091 0
0.716667 0.00909091 0
0.716667 0.00454545 0
0.733333 0.00454545 0
0.716667 0.00909091 0
0.733333 0.00909091 0
0.733333 0.00454545 0
0.75 0.00454545 0
0.733333 0.00909091 0
0.75 0.00909091 0
0.75 0.00454545 0
0.766667 0.00454545 0
0.75 0.00909091 0
0.766667 0.00909091 0
0.766667 0.00454545 0
0.783333 0.00454545 0
0.766667 0.00909091 0
0.783333 0.00909091 0
0.783333 0.00454545 0
0.8 0.00454545 0
0.783333 0.00909091 0
0.8 0.00909091 0
0.8 0.00454545 0
0.816667 0.00454545 0
0.8 0.00909091 0
0.816667 0.00909091 0
0.816667 0.00454545 0
0.833333 0.00454545 0
0.816667 0.00909091 0
0.833333 0.00909091 0
0.833333 0.00454545 0
0.85 0.00454545 0
0.833333 0.00909091 0
0.85 0.00909091 0
0.85 0.00454545 0
0.866667 0.00454545 0
0.85 0.00909091 0
0.866667 0.00909091 0
0.866667 0.00454545 0
0.883333 0.00454545 0
0.866667 0.00909091 0
0.883333 0.00909091 0
0.883333 0.00454545 0
0.9 0.00454545 0
0.883333 0.00909091 0
0.9 0.00909091 0
0.9 0.00454545 0
0.916667 0.00454545 0
0.9 0.00909091 0
0.916667 0.00909091 0
0.916667 0.00454545 0
0.933333 0.00454545 0
0.916667 0.00909091 0
0.933333 0.00909091 0
0.933333 0.00454545 0
0.95 0.00454545 0
0.933333 0.00909091 0
0.95 0.00909091 0
0.95 0.00454545 0
0.966667 0.00454545 0
0.95 0.00909091 0
0.966667 0.00909091 0
0.966667 0.00454545 0
0.983333 0.00454545 0
0.966667 0.00909091 0
0.983333 0.00909091 0
0.983333 0.00454545 0
1 0.00454545 0
0.983333 0.00909091 0
1 0.00909091 0
0 0.00909091 0
0.0166667 0.00909091 0
0 0.0136364 0
0.0166667 0.0136364 0
0.0166667 0.00909091 0
0.0333333 0.00909091 0
0.0166667 0.0136364 0
0.0333333 0.0136364 0
0.0333333 0.00909091 0
0.05 0.00909091 0
0.0333333 0.0136364 0
0.05 0.0136364 0
0.05 0.00909091 0
0.0666667 0.00909091 0
0.05 0.0136364 0
0.0666667 0.0136364 0
0.0666667 0.00909091 0
0.0833333 0.00909091 0
0.0666667 0.0136364 0
0.0833333 0.0136364 0
0.0833333 0.00909091 0
0.1 0.00909091 0
0.0833333 0.0136364 0
0.1 0.0136364 0
0.1 0.00909091 0
0.116667 0.00909091 0
0.1 0.0136364 0
0.116667 0.0136364 0
0.116667 0.00909091 0
0.133333 0.00909091 0
0.116667 0.0136364 0
0.133333 0.0136364 0
0.133333 0.00909091 0
0.15 0.00909091 0
0.133333 0.0136364 0
0.15 0.0136364 0
0.15 0.00909091 0
0.166667 0.00909091 0
0.15 0.0136364 0
0.166667 0.0136364 0
0.166667 0.00909091 0
0.183333 0.00909091 0
0.166667 0.0136364 0
0.183333 0.0136364 0
0.183333 0.00909091 0
0.2 0.00909091 0
0.183333 0.0136364 0
0.2 0.0136364 0
0.2 0.00909091 0
0.216667 0.00909091 0
0.2 0.0136364 0
0.216667 0.0136364 0
0.216667 0.00909091 0
[...]
POINT_DATA 52800
SCALARS youngs_modulus double 1
LOOKUP_TABLE default
76.7945 76.7945 76.7945 76.7945 80.4452 80.4452 80.4452 80.4452 67.8551 67.8551 67.8551 67.8551 85.2751 85.2751 85.2751 85.2751 94.5085 94.5085 94.5085 94.5085 97.0121 97.0121 97.0121 97.0121 82.4583 82.4583 82.4583 82.4583 91.4486 91.4486 91.4486 91.4486 100 100 100 100 98.9997 98.9997 98.9997 98.9997 100 100 100 100 88.8516 88.8516 88.8516 88.8516 82.5585 82.5585 82.5585 82.5585 84.3314 84.3314 84.3314 84.3314 94.1905 94.1905 94.1905 94.1905 88.1482 88.1482 88.1482 88.1482 96.072 96.072 96.072 96.072 86.5721 86.5721 86.5721 86.5721 86.1005 86.1005 86.1005 86.1005 96.3758 96.3758 96.3758 96.3758 91.0582 91.0582 91.0582 91.0582 80.8194 80.8194 80.8194 80.8194 83.1212 83.1212 83.1212 83.1212 100 100 100 100 89.5754 89.5754 89.5754 89.5754 87.5936 87.5936 87.5936 87.5936 69.8615 69.8615 69.8615 69.8615 68.11 68.11 68.11 68.11 74.0962 74.0962 74.0962 74.0962 52.413 52.413 52.413 52.413 52.2589 52.2589 52.2589 52.2589 50.8873 50.8873 50.8873 50.8873 48.3425 48.3425 48.3425 48.3425 38.874 38.874 38.874 38.874 40.3077 40.3077 40.3077 40.3077 36.305 36.305 36.305 36.305 37.1024 37.1024 37.1024 37.1024 36.1426 36.1426 36.1426 36.1426 39.5331 39.5331 39.5331 39.5331 34.2072 34.2072 34.2072 34.2072 35.3686 35.3686 35.3686 35.3686 100 100 100 100 84.0169 84.0169 84.0169 84.0169 90.1544 90.1544 90.1544 90.1544 100 100 100 100 100 100 100 100 89.4987 89.4987 89.4987 89.4987 88.777 88.777 88.777 88.777 98.3599 98.3599 98.3599 98.3599 48.5229 48.5229 48.5229 48.5229 49.7912 49.7912 49.7912 49.7912 45.1975 45.1975 45.1975 45.1975 40.5654 40.5654 40.5654 40.5654 49.0408 49.0408 49.0408 49.0408 75.4748 75.4748 75.4748 75.4748 74.039 74.039 74.039 74.039 89.1945 89.1945 89.1945 89.1945 92.7901 92.7901 92.7901 92.7901 90.3945 90.3945 90.3945 90.3945 100 100 100 100 83.0049 83.0049 83.0049 83.0049 67.3641 67.3641 67.3641 67.3641 84.6038 84.6038 84.6038 84.6038 90.9024 90.9024 90.9024 90.9024 93.5226 93.5226 93.5226 93.5226 94.7909 94.7909 94.7909 94.7909 93.4697 93.4697 93.4697 93.4697 100 100 100 100 100 100 100 100 100 100 100 100 86.569 86.569 86.569 86.569 82.2301 82.2301 82.2301 82.2301 84.6103 84.6103 84.6103 84.6103 81.7637 81.7637 81.7637 81.7637 77.3777 77.3777 77.3777 77.3777 87.8638 87.8638 87.8638 87.8638 98.6153 98.6153 98.6153 98.6153 94.3112 94.3112 94.3112 94.3112 81.4021 81.4021 81.4021 81.4021 98.1676 98.1676 98.1676 98.1676 100 100 100 100 84.7439 84.7439 84.7439 84.7439 85.5609 85.5609 85.5609 85.5609 89.7849 89.7849 89.7849 89.7849 95.1179 95.1179 95.1179 95.1179 84.9104 84.9104 84.9104 84.9104 62.8899 62.8899 62.8899 62.8899 71.9434 71.9434 71.9434 71.9434 73.1494 73.1494 73.1494 73.1494 50.9842 50.9842 50.9842 50.9842 50.6448 50.6448 50.6448 50.6448 48.4387 48.4387 48.4387 48.4387 47.7933 47.7933 47.7933 47.7933 37.6092 37.6092 37.6092 37.6092 36.1294 36.1294 36.1294 36.1294 34.2072 34.2072 34.2072 34.2072 34.2072 34.2072 34.2072 34.2072 35.9094 35.9094 35.9094 35.9094 39.5279 39.5279 39.5279 39.5279 34.2072 34.2072 34.2072 34.2072 89.7902 89.7902 89.7902 89.7902 83.2779 83.2779 83.2779 83.2779 93.2114 93.2114 93.2114 93.2114 85.3118 85.3118 85.3118 85.3118 100 100 100 100 100 100 100 100 94.1132 94.1132 94.1132 94.1132 88.2414 88.2414 88.2414 88.2414 47.9627 47.9627 47.9627 47.9627 43.9536 43.9536 43.9536 43.9536 50.3054 50.3054 50.3054 50.3054 48.8488 48.8488 48.8488 48.8488 42.6559 42.6559 42.6559 42.6559 83.8941 83.8941 83.8941 83.8941 86.8155 86.8155 86.8155 86.8155 83.3006 83.3006 83.3006 83.3006 80.2629 80.2629 80.2629 80.2629 79.9727 79.9727 79.9727 79.9727 95.0668 95.0668 95.0668 95.0668 94.0776 94.0776 94.0776 94.0776 73.3647 73.3647 73.3647 73.3647 79.3964 79.3964 79.3964 79.3964 86.119 86.119 86.119 86.119 79.5007 79.5007 79.5007 79.5007 95.7889 95.7889 95.7889 95.7889 89.275 89.275 89.275 89.275 94.6584 94.6584 94.6584 94.6584 100 100 100 100 100 100 100 100 83.0238 83.0238 83.0238 83.0238 80.0068 80.0068 80.0068 80.0068 80.8251 80.8251 80.8251 80.8251 86.2072 86.2072 86.2072 86.2072 82.5636 82.5636 82.5636 82.5636 89.3761 89.3761 89.3761 89.3761 85.9435 85.9435 85.9435 85.9435 86.5906 86.5906 86.5906 86.5906 82.8412 82.8412 82.8412 82.8412 86.1712 86.1712 86.1712 86.1712 79.504 79.504 79.504 79.504 87.1731 87.1731 87.1731 87.1731 90.3196 90.3196 90.3196 90.3196 87.6661 87.6661 87.6661 87.6661 91.3881 91.3881 91.3881 91.3881 94.9805 94.9805 94.9805 94.9805 93.569 93.569 93.569 93.569 83.0074 83.0074 83.0074 83.0074 70.4631 70.4631 70.4631 70.4631 68.1885 68.1885 68.1885 68.1885 55.2109 55.2109 55.2109 55.2109 48.412 48.412 48.412 48.412 51.5005 51.5005 51.5005 51.5005 47.9814 47.9814 47.9814 47.9814 40.1969 40.1969 40.1969 40.1969 35.8992 35.8992 35.8992 35.8992 34.2072 34.2072 34.2072 34.2072 34.2072 34.2072 34.2072 34.2072 37.3105 37.3105 37.3105 37.3105 100 100 100 100 100 100 100 100 95.3666 95.3666 95.3666 95.3666 95.9832 95.9832 95.9832 95.9832 88.58 88.58 88.58 88.58 86.2344 86.2344 86.2344 86.2344 100 100 100 100 92.8503 92.8503 92.8503 92.8503 94.6429 94.6429 94.6429 94.6429 83.5374 83.5374 83.5374 83.5374 48.906 48.906 48.906 48.906 46.2022 46.2022 46.2022 46.2022 44.4266 44.4266 44.4266 44.4266 46.0976 46.0976 46.0976 46.0976 47.7138 47.7138 47.7138 47.7138 88.3986 88.3986 88.3986 88.3986 81.1842 81.1842 81.1842 81.1842 84.6003 84.6003 84.6003 84.6003 84.2229 84.2229 84.2229 84.2229 87.472 87.472 87.472 87.472 89.1575 89.1575 89.1575 89.1575 82.3376 82.3376 82.3376 82.3376 63.128 63.128 63.128 63.128 74.4178 74.4178 74.4178 74.4178 87.2969 87.2969 87.2969 87.2969 90.9949 90.9949 90.9949 90.9949 99.957 99.957 99.957 99.957 82.2879 82.2879 82.2879 82.2879 89.3908 89.3908 89.3908 89.3908 100 100 100 100 100 100 100 100 90.6072 90.6072 90.6072 90.6072 82.4169 82.4169 82.4169 82.4169 95.4906 95.4906 95.4906 95.4906 87.8179 87.8179 87.8179 87.8179 82.5393 82.5393 82.5393 82.5393 85.7359 85.7359 85.7359 85.7359 74.9406 74.9406 74.9406 74.9406 80.8542 80.8542 80.8542 80.8542 82.947 82.947 82.947 82.947 86.8904 86.8904 86.8904 86.8904 80.4427 80.4427 80.4427 80.4427 75.1463 75.1463 75.1463 75.1463 84.8863 84.8863 84.8863 84.8863 76.9945 76.9945 76.9945 76.9945 75.1076 75.1076 75.1076 75.1076 90.0729 90.0729 90.0729 90.0729 94.1897 94.1897 94.1897 94.1897 74.1843 74.1843 74.1843 74.1843 68.9752 68.9752 68.9752 68.9752 65.2581 65.2581 65.2581 65.2581 54.6732 54.6732 54.6732 54.6732 52.0415 52.0415 52.0415 52.0415 49.7431 49.7431 49.7431 49.7431 57.1981 57.1981 57.1981 57.1981 46.9711 46.9711 46.9711 46.9711 39.5536 39.5536 39.5536 39.5536 36.1587 36.1587 36.1587 36.1587 34.2072 34.2072 34.2072 34.2072 91.9348 91.9348 91.9348 91.9348 99.8818 99.8818 99.8818 99.8818 93.6585 93.6585 93.6585 93.6585 93.3195 93.3195 93.3195 93.3195 100 100 100 100 80.7038 80.7038 80.7038 80.7038 82.344 82.344 82.344 82.344 87.3876 87.3876 87.3876 87.3876 86.9792 86.9792 86.9792 86.9792 83.9757 83.9757 83.9757 83.9757 79.7288 79.7288 79.7288 79.7288 91.5895 91.5895 91.5895 91.5895 48.4631 48.4631 48.4631 48.4631 47.0218 47.0218 47.0218 47.0218 50.5332 50.5332 50.5332 50.5332 51.1085 51.1085 51.1085 51.1085 85.2629 85.2629 85.2629 85.2629 83.7631 83.7631 83.7631 83.7631 78.2589 78.2589 78.2589 78.2589 97.5866 97.5866 97.5866 97.5866 84.4994 84.4994 84.4994 84.4994 96.9204 96.9204 96.9204 96.9204 49.9337 49.9337 49.9337 49.9337 66.941 66.941 66.941 66.941 81.5592 81.5592 81.5592 81.5592 80.6484 80.6484 80.6484 80.6484 82.7354 82.7354 82.7354 82.7354 89.532 89.532 89.532 89.532 94.2557 94.2557 94.2557 94.2557 86.8254 86.8254 86.8254 86.8254 96.1747 96.1747 96.1747 96.1747 96.8574 96.8574 96.8574 96.8574 100 100 100 100 83.8721 83.8721 83.8721 83.8721 73.8142 73.8142 73.8142 73.8142 83.997 83.997 83.997 83.997 89.7234 89.7234 89.7234 89.7234 89.8349 89.8349 89.8349 89.8349 94.9758 94.9758 94.9758 94.9758 87.8719 87.8719 87.8719 87.8719 89.47 89.47 89.47 89.47 89.3053 89.3053 89.3053 89.3053 88.389 88.389 88.389 88.389 93.3384 93.3384 93.3384 93.3384 82.4603 82.4603 82.4603 82.4603 84.615 84.615 84.615 84.615 84.6663 84.6663 84.6663 84.6663 86.4057 86.4057 86.4057 86.4057 96.242 96.242 96.242 96.242 92.9291 92.9291 92.9291 92.9291 75.9789 75.9789 75.9789 75.9789 64.9115 64.9115 64.9115 64.9115 73.8684 73.8684 73.8684 73.8684 97.2653 97.2653 97.2653 97.2653 76.1609 76.1609 76.1609 76.1609 71.6693 71.6693 71.6693 71.6693 100 100 100 100 89.8957 89.8957 89.8957 89.8957 79.0319 79.0319 79.0319 79.0319 96.2838 96.2838 96.2838 96.2838 94.5903 94.5903 94.5903 94.5903 98.6466 98.6466 98.6466 98.6466 97.8947 97.8947 97.8947 97.8947 93.652 93.652 93.652 93.652 86.6958 86.6958 86.6958 86.6958 89.7641 89.7641 89.7641 89.7641 87.3152 87.3152 87.3152 87.3152 80.7958 80.7958 80.7958 80.7958 81.159 81.159 81.159 81.159 93.8193 93.8193 93.8193 93.8193 84.5667 84.5667 84.5667 84.5667 89.2809 89.2809 89.2809 89.2809 48.2207 48.2207 48.2207 48.2207 47.5399 47.5399 47.5399 47.5399 55.9428 55.9428 55.9428 55.9428 48.3265 48.3265 48.3265 48.3265 46.472 46.472 46.472 46.472 96.4514 96.4514 96.4514 96.4514 76.0475 76.0475 76.0475 76.0475 65.2337 65.2337 65.2337 65.2337 65.3189 65.3189 65.3189 65.3189 72.6696 72.6696 72.6696 72.6696 48.9584 48.9584 48.9584 48.9584 73.3853 73.3853 73.3853 73.3853 74.4682 74.4682 74.4682 74.4682 84.2719 84.2719 84.2719 84.2719 89.3221 89.3221 89.3221 89.3221 81.9714 81.9714 81.9714 81.9714 75.9508 75.9508 75.9508 75.9508 94.3624 94.3624 94.3624 94.3624 100 100 100 100 100 100 100 100 91.1746 91.1746 91.1746 91.1746 83.7859 83.7859 83.7859 83.7859 77.7503 77.7503 77.7503 77.7503 78.3594 78.3594 78.3594 78.3594 80.3571 80.3571 80.3571 80.3571 76.9831 76.9831 76.9831 76.9831 93.1295 93.1295 93.1295 93.1295 92.8786 92.8786 92.8786 92.8786 83.6535 83.6535 83.6535 83.6535 80.4579 80.4579 80.4579 80.4579 69.5771 69.5771 69.5771 69.5771 91.4488 91.4488 91.4488 91.4488 77.0275 77.0275 77.0275 77.0275 82.2068 82.2068 82.2068 82.2068 75.4579 75.4579 75.4579 75.4579 74.6472 74.6472 74.6472 74.6472 84.2619 84.2619 84.2619 84.2619 91.2149 91.2149 91.2149 91.2149 82.3787 82.3787 82.3787 82.3787 76.0996 76.0996 76.0996 76.0996 72.5274 72.5274 72.5274 72.5274 83.6856 83.6856 83.6856 83.6856 88.2566 88.2566 88.2566 88.2566 80.3208 80.3208 80.3208 80.3208 91.5486 91.5486 91.5486 91.5486 93.0662 93.0662 93.0662 93.0662 87.3649 87.3649 87.3649 87.3649 99.4449 99.4449 99.4449 99.4449 94.2241 94.2241 94.2241 94.2241 100 100 100 100 87.7769 87.7769 87.7769 87.7769 94.5795 94.5795 94.5795 94.5795 99.657 99.657 99.657 99.657 92.824 92.824 92.824 92.824 90.0755 90.0755 90.0755 90.0755 88.1248 88.1248 88.1248 88.1248 86.0798 86.0798 86.0798 86.0798 87.6818 87.6818 87.6818 87.6818 78.3117 78.3117 78.3117 78.3117 76.429 76.429 76.429 76.429 47.4177 47.4177 47.4177 47.4177 52.868 52.868 52.868 52.868 59.2168 59.2168 59.2168 59.2168 53.2158 53.2158 53.2158 53.2158 50.3116 50.3116 50.3116 50.3116 70.4114 70.4114 70.4114 70.4114 69.0175 69.0175 69.0175 69.0175 60.4808 60.4808 60.4808 60.4808 64.7515 64.7515 64.7515 64.7515 66.8175 66.8175 66.8175 66.8175 82.6771 82.6771 82.6771 82.6771 100 100 100 100 93.6908 93.6908 93.6908 93.6908 87.3867 87.3867 87.3867 87.3867 100 100 100 100 94.7868 94.7868 94.7868 94.7868 89.0213 89.0213 89.0213 89.0213 93.5731 93.5731 93.5731 93.5731 92.4462 92.4462 92.4462 92.4462 100 100 100 100 91.75 91.75 91.75 91.75 87.1903 87.1903 87.1903 87.1903 87.5331 87.5331 87.5331 87.5331 83.6709 83.6709 83.6709 83.6709 81.7707 81.7707 81.7707 81.7707 81.7033 81.7033 81.7033 81.7033 99.8692 99.8692 99.8692 99.8692 99.1545 99.1545 99.1545 99.1545 91.2097 91.2097 91.2097 91.2097 100 100 100 100 88.0252 88.0252 88.0252 88.0252 88.0285 88.0285 88.0285 88.0285 89.9219 89.9219 89.9219 89.9219 68.455 68.455 68.455 68.455 75.5158 75.5158 75.5158 75.5158 68.2389 68.2389 68.2389 68.2389 74.7429 74.7429 74.7429 74.7429 82.599 82.599 82.599 82.599 79.4787 79.4787 79.4787 79.4787 86.2933 86.2933 86.2933 86.2933 84.4182 84.4182 84.4182 84.4182 92.626 92.626 92.626 92.626 83.2934 83.2934 83.2934 83.2934 74.2625 74.2625 74.2625 74.2625 80.4699 80.4699 80.4699 80.4699 82.5184 82.5184 82.5184 82.5184 81.4571 81.4571 81.4571 81.4571 93.4472 93.4472 93.4472 93.4472 99.4671 99.4671 99.4671 99.4671 94.4965 94.4965 94.4965 94.4965 93.2649 93.2649 93.2649 93.2649 84.7722 84.7722 84.7722 84.7722 89.6347 89.6347 89.6347 89.6347 83.8359 83.8359 83.8359 83.8359 90.8668 90.8668 90.8668 90.8668 98.3309 98.3309 98.3309 98.3309 83.4366 83.4366 83.4366 83.4366 75.9902 75.9902 75.9902 75.9902 74.7503 74.7503 74.7503 74.7503 88.4219 88.4219 88.4219 88.4219 38.9012 38.9012 38.9012 38.9012 51.1982 51.1982 51.1982 51.1982 55.5061 55.5061 55.5061 55.5061 53.6473 53.6473 53.6473 53.6473 56.5496 56.5496 56.5496 56.5496 64.812 64.812 64.812 64.812 65.1173 65.1173 65.1173 65.1173 63.6877 63.6877 63.6877 63.6877 62.9106 62.9106 62.9106 62.9106 81.508 81.508 81.508 81.508 92.2202 92.2202 92.2202 92.2202 91.7799 91.7799 91.7799 91.7799 79.9193 79.9193 79.9193 79.9193 90.6179 90.6179 90.6179 90.6179 92.3357 92.3357 92.3357 92.3357 96.6551 96.6551 96.6551 96.6551 85.2023 85.2023 85.2023 85.2023 89.8137 89.8137 89.8137 89.8137 97.5401 97.5401 97.5401 97.5401 100 100 100 100 96.9404 96.9404 96.9404 96.9404 84.0877 84.0877 84.0877 84.0877 79.0236 79.0236 79.0236 79.0236 70.7883 70.7883 70.7883 70.7883 78.0656 78.0656 78.0656 78.0656 75.4757 75.4757 75.4757 75.4757 86.1932 86.1932 86.1932 86.1932 100 100 100 100 100 100 100 100 100 100 100 100 93.9717 93.9717 93.9717 93.9717 75.9553 75.9553 75.9553 75.9553 66.3756 66.3756 66.3756 66.3756 65.9677 65.9677 65.9677 65.9677 75.8611 75.8611 75.8611 75.8611 79.6824 79.6824 79.6824 79.6824 57.279 57.279 57.279 57.279 49.3159 49.3159 49.3159 49.3159 42.2958 42.2958 42.2958 42.2958 44.4538 44.4538 44.4538 44.4538 84.5409 84.5409 84.5409 84.5409 89.1369 89.1369 89.1369 89.1369 98.0946 98.0946 98.0946 98.0946 89.1937 89.1937 89.1937 89.1937 86.1508 86.1508 86.1508 86.1508 89.0545 89.0545 89.0545 89.0545 87.1282 87.1282 87.1282 87.1282 91.348 91.348 91.348 91.348 92.9303 92.9303 92.9303 92.9303 96.2208 96.2208 96.2208 96.2208 100 100 100 100 95.1877 95.1877 95.1877 95.1877 91.9225 91.9225 91.9225 91.9225 91.7918 91.7918 91.7918 91.7918 74.7377 74.7377 74.7377 74.7377 80.2627 80.2627 80.2627 80.2627 88.622 88.622 88.622 88.622 74.285 74.285 74.285 74.285 92.8776 92.8776 92.8776 92.8776 100 100 100 100 85.1413 85.1413 85.1413 85.1413 52.1361 52.1361 52.1361 52.1361 57.1544 57.1544 57.1544 57.1544 56.5225 56.5225 56.5225 56.5225 55.1397 55.1397 55.1397 55.1397 60.5459 60.5459 60.5459 60.5459 60.3637 60.3637 60.3637 60.3637 62.7691 62.7691 62.7691 62.7691 66.2332 66.2332 66.2332 66.2332 77.3438 77.3438 77.3438 77.3438 93.772 93.772 93.772 93.772 77.7075 77.7075 77.7075 77.7075 74.434 74.434 74.434 74.434 75.2356 75.2356 75.2356 75.2356 82.3552 82.3552 82.3552 82.3552 73.3449 73.3449 73.3449 73.3449 85.5824 85.5824 85.5824 85.5824 84.5511 84.5511 84.5511 84.5511 77.4633 77.4633 77.4633 77.4633 89.8311 89.8311 89.8311 89.8311 86.4926 86.4926 86.4926 86.4926 79.12 79.12 79.12 79.12 75.2345 75.2345 75.2345 75.2345 78.2498 78.2498 78.2498 78.2498 85.0261 85.0261 85.0261 85.0261 62.2805 62.2805 62.2805 62.2805 80.2878 80.2878 80.2878 80.2878 94.8904 94.8904 94.8904 94.8904 98.3195 98.3195 98.3195 98.3195 94.7125 94.7125 94.7125 94.7125 94.4115 94.4115 94.4115 94.4115 81.1807 81.1807 81.1807 81.1807 73.0036 73.0036 73.0036 73.0036 76.7371 76.7371 76.7371 76.7371 76.8289 76.8289 76.8289 76.8289 87.4025 87.4025 87.4025 87.4025 87.9201 87.9201 87.9201 87.9201 90.9063 90.9063 90.9063 90.9063 83.0472 83.0472 83.0472 83.0472 86.6617 86.6617 86.6617 86.6617 77.2254 77.2254 77.2254 77.2254 79.9139 79.9139 79.9139 79.9139 83.6309 83.6309 83.6309 83.6309 100 100 100 100 92.0649 92.0649 92.0649 92.0649 81.2816 81.2816 81.2816 81.2816 96.8991 96.8991 96.8991 96.8991 94.1616 94.1616 94.1616 94.1616 88.3018 88.3018 88.3018 88.3018 93.8345 93.8345 93.8345 93.8345 100 100 100 100 90.7871 90.7871 90.7871 90.7871 94.4893 94.4893 94.4893 94.4893 78.9699 78.9699 78.9699 78.9699 72.3397 72.3397 72.3397 72.3397 88.918 88.918 88.918 88.918 94.1057 94.1057 94.1057 94.1057 82.2511 82.2511 82.2511 82.2511 90.9062 90.9062 90.9062 90.9062 100 100 100 100 86.5662 86.5662 86.5662 86.5662 48.4378 48.4378 48.4378 48.4378 63.6829 63.6829 63.6829 63.6829 58.2543 58.2543 58.2543 58.2543 51.0062 51.0062 51.0062 51.0062 55.3173 55.3173 55.3173 55.3173 61.4808 61.4808 61.4808 61.4808 73.7239 73.7239 73.7239 73.7239 94.7456 94.7456 94.7456 94.7456 84.3474 84.3474 84.3474 84.3474 100 100 100 100 93.4758 93.4758 93.4758 93.4758 74.7009 74.7009 74.7009 74.7009 74.2039 74.2039 74.2039 74.2039 63.0649 63.0649 63.0649 63.0649 79.1986 79.1986 79.1986 79.1986 87.4209 87.4209 87.4209 87.4209 72.6895 72.6895 72.6895 72.6895 70.1692 70.1692 70.1692 70.1692 87.0131 87.0131 87.0131 87.0131 85.2962 85.2962 85.2962 85.2962 76.2884 76.2884 76.2884 76.2884 71.9293 71.9293 71.9293 71.9293 80.4931 80.4931 80.4931 80.4931 78.7119 78.7119 78.7119 78.7119 65.4241 65.4241 65.4241 65.4241 77.8105 77.8105 77.8105 77.8105 93.8205 93.8205 93.8205 93.8205 97.1494 97.1494 97.1494 97.1494 93.2054 93.2054 93.2054 93.2054 87.1422 87.1422 87.1422 87.1422 80.4665 80.4665 80.4665 80.4665 76.8631 76.8631 76.8631 76.8631 72.2782 72.2782 72.2782 72.2782 88.4975 88.4975 88.4975 88.4975 97.9381 97.9381 97.9381 97.9381 85.0403 85.0403 85.0403 85.0403 89.8518 89.8518 89.8518 89.8518 71.3988 71.3988 71.3988 71.3988 81.482 81.482 81.482 81.482 87.1659 87.1659 87.1659 87.1659 96.0887 96.0887 96.0887 96.0887 75.3122 75.3122 75.3122 75.3122 92.974 92.974 92.974 92.974 94.0884 94.0884 94.0884 94.0884 97.5207 97.5207 97.5207 97.5207 100 100 100 100 93.4277 93.4277 93.4277 93.4277 93.2094 93.2094 93.2094 93.2094 79.6302 79.6302 79.6302 79.6302 90.3174 90.3174 90.3174 90.3174 96.0731 96.0731 96.0731 96.0731 92.2675 92.2675 92.2675 92.2675 75.4924 75.4924 75.4924 75.4924 72.907 72.907 72.907 72.907 84.0211 84.0211 84.0211 84.0211 85.7989 85.7989 85.7989 85.7989 72.6909 72.6909 72.6909 72.6909 83.8441 83.8441 83.8441 83.8441 89.8095 89.8095 89.8095 89.8095 88.9352 88.9352 88.9352 88.9352 50.7372 50.7372 50.7372 50.7372 65.4747 65.4747 65.4747 65.4747 52.0524 52.0524 52.0524 52.0524 55.5575 55.5575 55.5575 55.5575 61.54 61.54 61.54 61.54 65.608 65.608 65.608 65.608 74.663 74.663 74.663 74.663 78.8138 78.8138 78.8138 78.8138 84.4811 84.4811 84.4811 84.4811 99.1848 99.1848 99.1848 99.1848 82.323 82.323 82.323 82.323 77.1535 77.1535 77.1535 77.1535 72.91 72.91 72.91 72.91 83.4201 83.4201 83.4201 83.4201 66.3981 66.3981 66.3981 66.3981 76.8825 76.8825 76.8825 76.8825 71.8676 71.8676 71.8676 71.8676 81.7495 81.7495 81.7495 81.7495 80.5413 80.5413 80.5413 80.5413 71.9009 71.9009 71.9009 71.9009 80.7963 80.7963 80.7963 80.7963 82.0213 82.0213 82.0213 82.0213 74.6243 74.6243 74.6243 74.6243 84.8905 84.8905 84.8905 84.8905 76.0124 76.0124 76.0124 76.0124 74.9755 74.9755 74.9755 74.9755 83.3245 83.3245 83.3245 83.3245 93.5043 93.5043 93.5043 93.5043 85.3278 85.3278 85.3278 85.3278 94.1028 94.1028 94.1028 94.1028 92.1107 92.1107 92.1107 92.1107 83.8541 83.8541 83.8541 83.8541 83.7159 83.7159 83.7159 83.7159 81.3186 81.3186 81.3186 81.3186 100 100 100 100 90.3069 90.3069 90.3069 90.3069 92.48 92.48 92.48 92.48 82.8579 82.8579 82.8579 82.8579 85.2113 85.2113 85.2113 85.2113 82.1063 82.1063 82.1063 82.1063 85.4835 85.4835 85.4835 85.4835 68.1006 68.1006 68.1006 68.1006 82.8479 82.8479 82.8479 82.8479 85.4678 85.4678 85.4678 85.4678 92.3714 92.3714 92.3714 92.3714 98.8456 98.8456 98.8456 98.8456 95.5857 95.5857 95.5857 95.5857 84.8325 84.8325 84.8325 84.8325 87.4992 87.4992 87.4992 87.4992 80.0402 80.0402 80.0402 80.0402 81.3336 81.3336 81.3336 81.3336 82.0598 82.0598 82.0598 82.0598 67.821 67.821 67.821 67.821 89.0076 89.0076 89.0076 89.0076 74.9737 74.9737 74.9737 74.9737 89.6762 89.6762 89.6762 89.6762 84.0428 84.0428 84.0428 84.0428 76.2177 76.2177 76.2177 76.2177 88.5416 88.5416 88.5416 88.5416 82.9927 82.9927 82.9927 82.9927 53.1737 53.1737 53.1737 53.1737 63.8145 63.8145 63.8145 63.8145 60